LAMMPS (12 Dec 2018)
  using 1 OpenMP thread(s) per MPI task
Reading data file ...
  orthogonal box = (0 0 0) to (32.256 32.256 32.256)
  3 by 2 by 4 MPI processor grid
  reading atoms ...
  864 atoms
Finding 1-2 1-3 1-4 neighbors ...
  special bond factors lj:   0          0          0         
  special bond factors coul: 0          0          0         
  0 = max # of 1-2 neighbors
  0 = max # of 1-3 neighbors
  0 = max # of 1-4 neighbors
  1 = max # of special neighbors
Total wall time: 0:00:02
LAMMPS output is captured by PyLammps wrapper
LAMMPS output is captured by PyLammps wrapper
LAMMPS output is captured by PyLammps wrapper
LAMMPS output is captured by PyLammps wrapper
LAMMPS output is captured by PyLammps wrapper
LAMMPS output is captured by PyLammps wrapper
LAMMPS output is captured by PyLammps wrapper
LAMMPS output is captured by PyLammps wrapper
LAMMPS output is captured by PyLammps wrapper
LAMMPS output is captured by PyLammps wrapper
LAMMPS output is captured by PyLammps wrapper
LAMMPS output is captured by PyLammps wrapper
LAMMPS output is captured by PyLammps wrapper
LAMMPS output is captured by PyLammps wrapper
LAMMPS output is captured by PyLammps wrapper
LAMMPS output is captured by PyLammps wrapper
LAMMPS output is captured by PyLammps wrapper
LAMMPS output is captured by PyLammps wrapper
LAMMPS output is captured by PyLammps wrapper
LAMMPS output is captured by PyLammps wrapper
LAMMPS output is captured by PyLammps wrapper
LAMMPS output is captured by PyLammps wrapper
LAMMPS output is captured by PyLammps wrapper
LAMMPS output is captured by PyLammps wrapper
LAMMPS output is captured by PyLammps wrapper
LAMMPS output is captured by PyLammps wrapper
LAMMPS output is captured by PyLammps wrapper
LAMMPS output is captured by PyLammps wrapper
LAMMPS output is captured by PyLammps wrapper
LAMMPS output is captured by PyLammps wrapper
LAMMPS output is captured by PyLammps wrapper
LAMMPS output is captured by PyLammps wrapper
LAMMPS output is captured by PyLammps wrapper
LAMMPS output is captured by PyLammps wrapper
LAMMPS output is captured by PyLammps wrapper
LAMMPS output is captured by PyLammps wrapper
LAMMPS output is captured by PyLammps wrapper
LAMMPS output is captured by PyLammps wrapper
LAMMPS output is captured by PyLammps wrapper
LAMMPS output is captured by PyLammps wrapper
LAMMPS output is captured by PyLammps wrapper
LAMMPS output is captured by PyLammps wrapper
LAMMPS output is captured by PyLammps wrapper
LAMMPS output is captured by PyLammps wrapper
LAMMPS output is captured by PyLammps wrapper
LAMMPS output is captured by PyLammps wrapper
LAMMPS output is captured by PyLammps wrapper
LAMMPS output is captured by PyLammps wrapper
LAMMPS output is captured by PyLammps wrapper
LAMMPS output is captured by PyLammps wrapper
LAMMPS output is captured by PyLammps wrapper
LAMMPS output is captured by PyLammps wrapper
LAMMPS output is captured by PyLammps wrapper
LAMMPS output is captured by PyLammps wrapper
LAMMPS output is captured by PyLammps wrapper
LAMMPS output is captured by PyLammps wrapper
LAMMPS output is captured by PyLammps wrapper
LAMMPS output is captured by PyLammps wrapper
LAMMPS output is captured by PyLammps wrapper
LAMMPS output is captured by PyLammps wrapper
LAMMPS output is captured by PyLammps wrapper
LAMMPS output is captured by PyLammps wrapper
LAMMPS output is captured by PyLammps wrapper
LAMMPS output is captured by PyLammps wrapper
LAMMPS output is captured by PyLammps wrapper
LAMMPS output is captured by PyLammps wrapper
LAMMPS output is captured by PyLammps wrapper
LAMMPS output is captured by PyLammps wrapper
LAMMPS output is captured by PyLammps wrapper
LAMMPS output is captured by PyLammps wrapper
LAMMPS output is captured by PyLammps wrapper
LAMMPS output is captured by PyLammps wrapper
LAMMPS output is captured by PyLammps wrapper
LAMMPS output is captured by PyLammps wrapper
LAMMPS output is captured by PyLammps wrapper
LAMMPS output is captured by PyLammps wrapper
LAMMPS output is captured by PyLammps wrapper
LAMMPS output is captured by PyLammps wrapper
LAMMPS output is captured by PyLammps wrapper
LAMMPS output is captured by PyLammps wrapper
LAMMPS output is captured by PyLammps wrapper
LAMMPS output is captured by PyLammps wrapper
LAMMPS output is captured by PyLammps wrapper
LAMMPS output is captured by PyLammps wrapper
LAMMPS output is captured by PyLammps wrapper
LAMMPS output is captured by PyLammps wrapper
LAMMPS output is captured by PyLammps wrapper
LAMMPS output is captured by PyLammps wrapper
LAMMPS output is captured by PyLammps wrapper
LAMMPS output is captured by PyLammps wrapper
LAMMPS output is captured by PyLammps wrapper
LAMMPS output is captured by PyLammps wrapper
LAMMPS output is captured by PyLammps wrapper
LAMMPS output is captured by PyLammps wrapper
LAMMPS output is captured by PyLammps wrapper
LAMMPS output is captured by PyLammps wrapper
LAMMPS output is captured by PyLammps wrapper
LAMMPS output is captured by PyLammps wrapper
LAMMPS output is captured by PyLammps wrapper
LAMMPS output is captured by PyLammps wrapper
LAMMPS output is captured by PyLammps wrapper
LAMMPS output is captured by PyLammps wrapper
LAMMPS output is captured by PyLammps wrapper
LAMMPS output is captured by PyLammps wrapper
LAMMPS output is captured by PyLammps wrapper
LAMMPS output is captured by PyLammps wrapper
LAMMPS output is captured by PyLammps wrapper
LAMMPS output is captured by PyLammps wrapper
LAMMPS output is captured by PyLammps wrapper
LAMMPS output is captured by PyLammps wrapper
LAMMPS output is captured by PyLammps wrapper
LAMMPS output is captured by PyLammps wrapper
LAMMPS output is captured by PyLammps wrapper
LAMMPS output is captured by PyLammps wrapper
LAMMPS output is captured by PyLammps wrapper
LAMMPS output is captured by PyLammps wrapper
LAMMPS output is captured by PyLammps wrapper
LAMMPS output is captured by PyLammps wrapper
LAMMPS output is captured by PyLammps wrapper
LAMMPS output is captured by PyLammps wrapper
LAMMPS output is captured by PyLammps wrapper
LAMMPS output is captured by PyLammps wrapper
LAMMPS output is captured by PyLammps wrapper
LAMMPS output is captured by PyLammps wrapper
LAMMPS output is captured by PyLammps wrapper
LAMMPS output is captured by PyLammps wrapper
LAMMPS output is captured by PyLammps wrapper
LAMMPS output is captured by PyLammps wrapper
LAMMPS output is captured by PyLammps wrapper
LAMMPS output is captured by PyLammps wrapper
LAMMPS output is captured by PyLammps wrapper
LAMMPS output is captured by PyLammps wrapper
LAMMPS output is captured by PyLammps wrapper
LAMMPS output is captured by PyLammps wrapper
LAMMPS output is captured by PyLammps wrapper
LAMMPS output is captured by PyLammps wrapper
LAMMPS output is captured by PyLammps wrapper
LAMMPS output is captured by PyLammps wrapper
LAMMPS output is captured by PyLammps wrapper
LAMMPS output is captured by PyLammps wrapper
LAMMPS output is captured by PyLammps wrapper
LAMMPS output is captured by PyLammps wrapper
LAMMPS output is captured by PyLammps wrapper
LAMMPS output is captured by PyLammps wrapper
LAMMPS output is captured by PyLammps wrapper
LAMMPS output is captured by PyLammps wrapper
LAMMPS output is captured by PyLammps wrapper
LAMMPS output is captured by PyLammps wrapper
LAMMPS output is captured by PyLammps wrapper
LAMMPS output is captured by PyLammps wrapper
LAMMPS output is captured by PyLammps wrapper
LAMMPS output is captured by PyLammps wrapper
LAMMPS output is captured by PyLammps wrapper
LAMMPS output is captured by PyLammps wrapper
LAMMPS output is captured by PyLammps wrapper
LAMMPS output is captured by PyLammps wrapper
LAMMPS output is captured by PyLammps wrapper
LAMMPS output is captured by PyLammps wrapper
LAMMPS output is captured by PyLammps wrapper
LAMMPS output is captured by PyLammps wrapper
LAMMPS output is captured by PyLammps wrapper
LAMMPS output is captured by PyLammps wrapper
LAMMPS output is captured by PyLammps wrapper
LAMMPS output is captured by PyLammps wrapper
LAMMPS output is captured by PyLammps wrapper
LAMMPS output is captured by PyLammps wrapper
LAMMPS output is captured by PyLammps wrapper
LAMMPS output is captured by PyLammps wrapper
LAMMPS output is captured by PyLammps wrapper
LAMMPS output is captured by PyLammps wrapper
LAMMPS output is captured by PyLammps wrapper
LAMMPS output is captured by PyLammps wrapper
LAMMPS output is captured by PyLammps wrapper
LAMMPS output is captured by PyLammps wrapper
LAMMPS output is captured by PyLammps wrapper
LAMMPS output is captured by PyLammps wrapper
LAMMPS output is captured by PyLammps wrapper
LAMMPS output is captured by PyLammps wrapper
LAMMPS output is captured by PyLammps wrapper
LAMMPS output is captured by PyLammps wrapper
LAMMPS output is captured by PyLammps wrapper
LAMMPS output is captured by PyLammps wrapper
LAMMPS output is captured by PyLammps wrapper
LAMMPS output is captured by PyLammps wrapper
LAMMPS output is captured by PyLammps wrapper
LAMMPS output is captured by PyLammps wrapper
LAMMPS output is captured by PyLammps wrapper
LAMMPS output is captured by PyLammps wrapper
LAMMPS output is captured by PyLammps wrapper
LAMMPS output is captured by PyLammps wrapper
LAMMPS output is captured by PyLammps wrapper
LAMMPS output is captured by PyLammps wrapper
LAMMPS output is captured by PyLammps wrapper
LAMMPS output is captured by PyLammps wrapper
LAMMPS output is captured by PyLammps wrapper
LAMMPS output is captured by PyLammps wrapper
LAMMPS output is captured by PyLammps wrapper
LAMMPS output is captured by PyLammps wrapper
LAMMPS output is captured by PyLammps wrapper
LAMMPS output is captured by PyLammps wrapper
LAMMPS output is captured by PyLammps wrapper
LAMMPS output is captured by PyLammps wrapper
LAMMPS output is captured by PyLammps wrapper
LAMMPS output is captured by PyLammps wrapper
LAMMPS output is captured by PyLammps wrapper
LAMMPS output is captured by PyLammps wrapper
LAMMPS output is captured by PyLammps wrapper
LAMMPS output is captured by PyLammps wrapper
LAMMPS output is captured by PyLammps wrapper
LAMMPS output is captured by PyLammps wrapper
LAMMPS output is captured by PyLammps wrapper
LAMMPS output is captured by PyLammps wrapper
LAMMPS output is captured by PyLammps wrapper
LAMMPS output is captured by PyLammps wrapper
LAMMPS output is captured by PyLammps wrapper
LAMMPS output is captured by PyLammps wrapper
LAMMPS output is captured by PyLammps wrapper
LAMMPS output is captured by PyLammps wrapper
LAMMPS output is captured by PyLammps wrapper
LAMMPS output is captured by PyLammps wrapper
LAMMPS output is captured by PyLammps wrapper
LAMMPS output is captured by PyLammps wrapper
LAMMPS output is captured by PyLammps wrapper
LAMMPS output is captured by PyLammps wrapper
LAMMPS output is captured by PyLammps wrapper
LAMMPS output is captured by PyLammps wrapper
LAMMPS output is captured by PyLammps wrapper
LAMMPS output is captured by PyLammps wrapper
LAMMPS output is captured by PyLammps wrapper
LAMMPS output is captured by PyLammps wrapper
LAMMPS output is captured by PyLammps wrapper
LAMMPS output is captured by PyLammps wrapper
LAMMPS output is captured by PyLammps wrapper
LAMMPS output is captured by PyLammps wrapper
LAMMPS output is captured by PyLammps wrapper
LAMMPS output is captured by PyLammps wrapper
LAMMPS output is captured by PyLammps wrapper
LAMMPS output is captured by PyLammps wrapper
LAMMPS output is captured by PyLammps wrapper
LAMMPS output is captured by PyLammps wrapper
LAMMPS output is captured by PyLammps wrapper
LAMMPS output is captured by PyLammps wrapper
LAMMPS output is captured by PyLammps wrapper
LAMMPS output is captured by PyLammps wrapper
LAMMPS output is captured by PyLammps wrapper
LAMMPS output is captured by PyLammps wrapper
LAMMPS output is captured by PyLammps wrapper
LAMMPS output is captured by PyLammps wrapper
LAMMPS output is captured by PyLammps wrapper
LAMMPS output is captured by PyLammps wrapper
LAMMPS output is captured by PyLammps wrapper
LAMMPS output is captured by PyLammps wrapper
LAMMPS output is captured by PyLammps wrapper
LAMMPS output is captured by PyLammps wrapper
LAMMPS output is captured by PyLammps wrapper
LAMMPS output is captured by PyLammps wrapper
LAMMPS output is captured by PyLammps wrapper
LAMMPS output is captured by PyLammps wrapper
LAMMPS output is captured by PyLammps wrapper
LAMMPS output is captured by PyLammps wrapper
LAMMPS output is captured by PyLammps wrapper
LAMMPS output is captured by PyLammps wrapper
LAMMPS output is captured by PyLammps wrapper
LAMMPS output is captured by PyLammps wrapper
LAMMPS output is captured by PyLammps wrapper
LAMMPS output is captured by PyLammps wrapper
LAMMPS output is captured by PyLammps wrapper
LAMMPS output is captured by PyLammps wrapper
LAMMPS output is captured by PyLammps wrapper
LAMMPS output is captured by PyLammps wrapper
LAMMPS output is captured by PyLammps wrapper
LAMMPS output is captured by PyLammps wrapper
LAMMPS output is captured by PyLammps wrapper
LAMMPS output is captured by PyLammps wrapper
LAMMPS output is captured by PyLammps wrapper
LAMMPS output is captured by PyLammps wrapper
LAMMPS output is captured by PyLammps wrapper
LAMMPS output is captured by PyLammps wrapper
LAMMPS output is captured by PyLammps wrapper
LAMMPS output is captured by PyLammps wrapper
LAMMPS output is captured by PyLammps wrapper
LAMMPS output is captured by PyLammps wrapper
LAMMPS output is captured by PyLammps wrapper
LAMMPS output is captured by PyLammps wrapper
LAMMPS output is captured by PyLammps wrapper
LAMMPS output is captured by PyLammps wrapper
LAMMPS output is captured by PyLammps wrapper
LAMMPS output is captured by PyLammps wrapper
LAMMPS output is captured by PyLammps wrapper
LAMMPS output is captured by PyLammps wrapper
LAMMPS output is captured by PyLammps wrapper
LAMMPS output is captured by PyLammps wrapper
LAMMPS output is captured by PyLammps wrapper
LAMMPS output is captured by PyLammps wrapper
LAMMPS output is captured by PyLammps wrapper
LAMMPS output is captured by PyLammps wrapper
LAMMPS output is captured by PyLammps wrapper
LAMMPS output is captured by PyLammps wrapper
LAMMPS output is captured by PyLammps wrapper
LAMMPS output is captured by PyLammps wrapper
LAMMPS output is captured by PyLammps wrapper
LAMMPS output is captured by PyLammps wrapper
LAMMPS output is captured by PyLammps wrapper
LAMMPS output is captured by PyLammps wrapper
LAMMPS output is captured by PyLammps wrapper
LAMMPS output is captured by PyLammps wrapper
LAMMPS output is captured by PyLammps wrapper
LAMMPS output is captured by PyLammps wrapper
LAMMPS output is captured by PyLammps wrapper
LAMMPS output is captured by PyLammps wrapper
LAMMPS output is captured by PyLammps wrapper
LAMMPS output is captured by PyLammps wrapper
LAMMPS output is captured by PyLammps wrapper
LAMMPS output is captured by PyLammps wrapper
LAMMPS output is captured by PyLammps wrapper
LAMMPS output is captured by PyLammps wrapper
LAMMPS output is captured by PyLammps wrapper
LAMMPS output is captured by PyLammps wrapper
LAMMPS output is captured by PyLammps wrapper
LAMMPS output is captured by PyLammps wrapper
LAMMPS output is captured by PyLammps wrapper
LAMMPS output is captured by PyLammps wrapper
LAMMPS output is captured by PyLammps wrapper
LAMMPS output is captured by PyLammps wrapper
LAMMPS output is captured by PyLammps wrapper
LAMMPS output is captured by PyLammps wrapper
LAMMPS output is captured by PyLammps wrapper
LAMMPS output is captured by PyLammps wrapper
LAMMPS output is captured by PyLammps wrapper
LAMMPS output is captured by PyLammps wrapper
LAMMPS output is captured by PyLammps wrapper
LAMMPS output is captured by PyLammps wrapper
LAMMPS output is captured by PyLammps wrapper
LAMMPS output is captured by PyLammps wrapper
LAMMPS output is captured by PyLammps wrapper
LAMMPS output is captured by PyLammps wrapper
LAMMPS output is captured by PyLammps wrapper
LAMMPS output is captured by PyLammps wrapper
LAMMPS output is captured by PyLammps wrapper
LAMMPS output is captured by PyLammps wrapper
LAMMPS output is captured by PyLammps wrapper
LAMMPS output is captured by PyLammps wrapper
LAMMPS output is captured by PyLammps wrapper
LAMMPS output is captured by PyLammps wrapper
LAMMPS output is captured by PyLammps wrapper
LAMMPS output is captured by PyLammps wrapper
LAMMPS output is captured by PyLammps wrapper
LAMMPS output is captured by PyLammps wrapper
LAMMPS output is captured by PyLammps wrapper
LAMMPS output is captured by PyLammps wrapper
LAMMPS output is captured by PyLammps wrapper
LAMMPS output is captured by PyLammps wrapper
LAMMPS output is captured by PyLammps wrapper
LAMMPS output is captured by PyLammps wrapper
LAMMPS output is captured by PyLammps wrapper
LAMMPS output is captured by PyLammps wrapper
LAMMPS output is captured by PyLammps wrapper
LAMMPS output is captured by PyLammps wrapper
LAMMPS output is captured by PyLammps wrapper
LAMMPS output is captured by PyLammps wrapper
LAMMPS output is captured by PyLammps wrapper
LAMMPS output is captured by PyLammps wrapper
LAMMPS output is captured by PyLammps wrapper
LAMMPS output is captured by PyLammps wrapper
LAMMPS output is captured by PyLammps wrapper
LAMMPS output is captured by PyLammps wrapper
LAMMPS output is captured by PyLammps wrapper
LAMMPS output is captured by PyLammps wrapper
LAMMPS output is captured by PyLammps wrapper
LAMMPS output is captured by PyLammps wrapper
LAMMPS output is captured by PyLammps wrapper
LAMMPS output is captured by PyLammps wrapper
LAMMPS output is captured by PyLammps wrapper
LAMMPS output is captured by PyLammps wrapper
LAMMPS output is captured by PyLammps wrapper
LAMMPS output is captured by PyLammps wrapper
LAMMPS output is captured by PyLammps wrapper
LAMMPS output is captured by PyLammps wrapper
LAMMPS output is captured by PyLammps wrapper
LAMMPS output is captured by PyLammps wrapper
LAMMPS output is captured by PyLammps wrapper
LAMMPS output is captured by PyLammps wrapper
LAMMPS output is captured by PyLammps wrapper
LAMMPS output is captured by PyLammps wrapper
LAMMPS output is captured by PyLammps wrapper
LAMMPS output is captured by PyLammps wrapper
LAMMPS output is captured by PyLammps wrapper
LAMMPS output is captured by PyLammps wrapper
LAMMPS output is captured by PyLammps wrapper
LAMMPS output is captured by PyLammps wrapper
LAMMPS output is captured by PyLammps wrapper
LAMMPS output is captured by PyLammps wrapper
LAMMPS output is captured by PyLammps wrapper
LAMMPS output is captured by PyLammps wrapper
LAMMPS output is captured by PyLammps wrapper
LAMMPS output is captured by PyLammps wrapper
LAMMPS output is captured by PyLammps wrapper
LAMMPS output is captured by PyLammps wrapper
LAMMPS output is captured by PyLammps wrapper
LAMMPS output is captured by PyLammps wrapper
LAMMPS output is captured by PyLammps wrapper
LAMMPS output is captured by PyLammps wrapper
LAMMPS output is captured by PyLammps wrapper
LAMMPS output is captured by PyLammps wrapper
LAMMPS output is captured by PyLammps wrapper
LAMMPS output is captured by PyLammps wrapper
LAMMPS output is captured by PyLammps wrapper
LAMMPS output is captured by PyLammps wrapper
LAMMPS output is captured by PyLammps wrapper
LAMMPS output is captured by PyLammps wrapper
LAMMPS output is captured by PyLammps wrapper
LAMMPS output is captured by PyLammps wrapper
LAMMPS output is captured by PyLammps wrapper
LAMMPS output is captured by PyLammps wrapper
LAMMPS output is captured by PyLammps wrapper
LAMMPS output is captured by PyLammps wrapper
LAMMPS output is captured by PyLammps wrapper
LAMMPS output is captured by PyLammps wrapper
LAMMPS output is captured by PyLammps wrapper
LAMMPS output is captured by PyLammps wrapper
LAMMPS output is captured by PyLammps wrapper
LAMMPS output is captured by PyLammps wrapper
LAMMPS output is captured by PyLammps wrapper
LAMMPS output is captured by PyLammps wrapper
LAMMPS output is captured by PyLammps wrapper
LAMMPS output is captured by PyLammps wrapper
LAMMPS output is captured by PyLammps wrapper
LAMMPS output is captured by PyLammps wrapper
LAMMPS output is captured by PyLammps wrapper
LAMMPS output is captured by PyLammps wrapper
LAMMPS output is captured by PyLammps wrapper
LAMMPS output is captured by PyLammps wrapper
LAMMPS output is captured by PyLammps wrapper
LAMMPS output is captured by PyLammps wrapper
LAMMPS output is captured by PyLammps wrapper
LAMMPS output is captured by PyLammps wrapper
LAMMPS output is captured by PyLammps wrapper
LAMMPS output is captured by PyLammps wrapper
LAMMPS output is captured by PyLammps wrapper
LAMMPS output is captured by PyLammps wrapper
LAMMPS output is captured by PyLammps wrapper
LAMMPS output is captured by PyLammps wrapper
LAMMPS output is captured by PyLammps wrapper
LAMMPS output is captured by PyLammps wrapper
LAMMPS output is captured by PyLammps wrapper
LAMMPS output is captured by PyLammps wrapper
LAMMPS output is captured by PyLammps wrapper
LAMMPS output is captured by PyLammps wrapper
LAMMPS output is captured by PyLammps wrapper
LAMMPS output is captured by PyLammps wrapper
LAMMPS output is captured by PyLammps wrapper
LAMMPS output is captured by PyLammps wrapper
LAMMPS output is captured by PyLammps wrapper
LAMMPS output is captured by PyLammps wrapper
LAMMPS output is captured by PyLammps wrapper
LAMMPS output is captured by PyLammps wrapper
LAMMPS output is captured by PyLammps wrapper
LAMMPS output is captured by PyLammps wrapper
LAMMPS output is captured by PyLammps wrapper
LAMMPS output is captured by PyLammps wrapper
LAMMPS output is captured by PyLammps wrapper
LAMMPS output is captured by PyLammps wrapper
LAMMPS output is captured by PyLammps wrapper
LAMMPS output is captured by PyLammps wrapper
LAMMPS output is captured by PyLammps wrapper
LAMMPS output is captured by PyLammps wrapper
LAMMPS output is captured by PyLammps wrapper
LAMMPS output is captured by PyLammps wrapper
LAMMPS output is captured by PyLammps wrapper
LAMMPS output is captured by PyLammps wrapper
LAMMPS output is captured by PyLammps wrapper
LAMMPS output is captured by PyLammps wrapper
LAMMPS output is captured by PyLammps wrapper
LAMMPS output is captured by PyLammps wrapper
LAMMPS output is captured by PyLammps wrapper
LAMMPS output is captured by PyLammps wrapper
LAMMPS output is captured by PyLammps wrapper
LAMMPS output is captured by PyLammps wrapper
LAMMPS output is captured by PyLammps wrapper
LAMMPS output is captured by PyLammps wrapper
LAMMPS output is captured by PyLammps wrapper
LAMMPS output is captured by PyLammps wrapper
LAMMPS output is captured by PyLammps wrapper
LAMMPS output is captured by PyLammps wrapper
LAMMPS output is captured by PyLammps wrapper
LAMMPS output is captured by PyLammps wrapper
LAMMPS output is captured by PyLammps wrapper
LAMMPS output is captured by PyLammps wrapper
LAMMPS output is captured by PyLammps wrapper
LAMMPS output is captured by PyLammps wrapper
LAMMPS output is captured by PyLammps wrapper
LAMMPS output is captured by PyLammps wrapper
LAMMPS output is captured by PyLammps wrapper
LAMMPS output is captured by PyLammps wrapper
LAMMPS output is captured by PyLammps wrapper
LAMMPS output is captured by PyLammps wrapper
LAMMPS output is captured by PyLammps wrapper
LAMMPS output is captured by PyLammps wrapper
LAMMPS output is captured by PyLammps wrapper
LAMMPS output is captured by PyLammps wrapper
LAMMPS output is captured by PyLammps wrapper
LAMMPS output is captured by PyLammps wrapper
LAMMPS output is captured by PyLammps wrapper
LAMMPS output is captured by PyLammps wrapper
LAMMPS output is captured by PyLammps wrapper
LAMMPS output is captured by PyLammps wrapper
LAMMPS output is captured by PyLammps wrapper
LAMMPS output is captured by PyLammps wrapper
LAMMPS output is captured by PyLammps wrapper
LAMMPS output is captured by PyLammps wrapper
LAMMPS output is captured by PyLammps wrapper
LAMMPS output is captured by PyLammps wrapper
LAMMPS output is captured by PyLammps wrapper
LAMMPS output is captured by PyLammps wrapper
LAMMPS output is captured by PyLammps wrapper
LAMMPS output is captured by PyLammps wrapper
LAMMPS output is captured by PyLammps wrapper
LAMMPS output is captured by PyLammps wrapper
LAMMPS output is captured by PyLammps wrapper
LAMMPS output is captured by PyLammps wrapper
LAMMPS output is captured by PyLammps wrapper
LAMMPS output is captured by PyLammps wrapper
LAMMPS output is captured by PyLammps wrapper
LAMMPS output is captured by PyLammps wrapper
LAMMPS output is captured by PyLammps wrapper
LAMMPS output is captured by PyLammps wrapper
LAMMPS output is captured by PyLammps wrapper
LAMMPS output is captured by PyLammps wrapper
LAMMPS output is captured by PyLammps wrapper
LAMMPS output is captured by PyLammps wrapper
LAMMPS output is captured by PyLammps wrapper
LAMMPS output is captured by PyLammps wrapper
LAMMPS output is captured by PyLammps wrapper
LAMMPS output is captured by PyLammps wrapper
LAMMPS output is captured by PyLammps wrapper
LAMMPS output is captured by PyLammps wrapper
LAMMPS output is captured by PyLammps wrapper
LAMMPS output is captured by PyLammps wrapper
LAMMPS output is captured by PyLammps wrapper
LAMMPS output is captured by PyLammps wrapper
LAMMPS output is captured by PyLammps wrapper
LAMMPS output is captured by PyLammps wrapper
LAMMPS output is captured by PyLammps wrapper
LAMMPS output is captured by PyLammps wrapper
LAMMPS output is captured by PyLammps wrapper
LAMMPS output is captured by PyLammps wrapper
LAMMPS output is captured by PyLammps wrapper
LAMMPS output is captured by PyLammps wrapper
LAMMPS output is captured by PyLammps wrapper
LAMMPS output is captured by PyLammps wrapper
LAMMPS output is captured by PyLammps wrapper
LAMMPS output is captured by PyLammps wrapper
LAMMPS output is captured by PyLammps wrapper
LAMMPS output is captured by PyLammps wrapper
LAMMPS output is captured by PyLammps wrapper
LAMMPS output is captured by PyLammps wrapper
LAMMPS output is captured by PyLammps wrapper
LAMMPS output is captured by PyLammps wrapper
LAMMPS output is captured by PyLammps wrapper
LAMMPS output is captured by PyLammps wrapper
LAMMPS output is captured by PyLammps wrapper
LAMMPS output is captured by PyLammps wrapper
***** initial *****
lx: 32.256
ly: 32.256
lz: 32.256
xy: 0.0
xz: 0.0
ratios:     1.000000     1.000000     0.000000
LAMMPS output is captured by PyLammps wrapper
LAMMPS output is captured by PyLammps wrapper
LAMMPS output is captured by PyLammps wrapper
LAMMPS output is captured by PyLammps wrapper
LAMMPS output is captured by PyLammps wrapper
LAMMPS output is captured by PyLammps wrapper
LAMMPS output is captured by PyLammps wrapper
LAMMPS output is captured by PyLammps wrapper
LAMMPS output is captured by PyLammps wrapper
LAMMPS output is captured by PyLammps wrapper
LAMMPS output is captured by PyLammps wrapper
LAMMPS output is captured by PyLammps wrapper
LAMMPS output is captured by PyLammps wrapper
LAMMPS output is captured by PyLammps wrapper
LAMMPS output is captured by PyLammps wrapper
LAMMPS output is captured by PyLammps wrapper
LAMMPS output is captured by PyLammps wrapper
LAMMPS output is captured by PyLammps wrapper
LAMMPS output is captured by PyLammps wrapper
LAMMPS output is captured by PyLammps wrapper
LAMMPS output is captured by PyLammps wrapper
LAMMPS output is captured by PyLammps wrapper
LAMMPS output is captured by PyLammps wrapper
LAMMPS output is captured by PyLammps wrapper
LAMMPS output is captured by PyLammps wrapper
LAMMPS output is captured by PyLammps wrapper
LAMMPS output is captured by PyLammps wrapper
LAMMPS output is captured by PyLammps wrapper
LAMMPS output is captured by PyLammps wrapper
LAMMPS output is captured by PyLammps wrapper
LAMMPS output is captured by PyLammps wrapper
LAMMPS output is captured by PyLammps wrapper
LAMMPS output is captured by PyLammps wrapper
LAMMPS output is captured by PyLammps wrapper
LAMMPS output is captured by PyLammps wrapper
LAMMPS output is captured by PyLammps wrapper
LAMMPS output is captured by PyLammps wrapper
LAMMPS output is captured by PyLammps wrapper
LAMMPS output is captured by PyLammps wrapper
LAMMPS output is captured by PyLammps wrapper
LAMMPS output is captured by PyLammps wrapper
LAMMPS output is captured by PyLammps wrapper
LAMMPS output is captured by PyLammps wrapper
LAMMPS output is captured by PyLammps wrapper
LAMMPS output is captured by PyLammps wrapper
LAMMPS output is captured by PyLammps wrapper
LAMMPS output is captured by PyLammps wrapper
LAMMPS output is captured by PyLammps wrapper
LAMMPS output is captured by PyLammps wrapper
LAMMPS output is captured by PyLammps wrapper
LAMMPS output is captured by PyLammps wrapper
LAMMPS output is captured by PyLammps wrapper
LAMMPS output is captured by PyLammps wrapper
LAMMPS output is captured by PyLammps wrapper
LAMMPS output is captured by PyLammps wrapper
LAMMPS output is captured by PyLammps wrapper
LAMMPS output is captured by PyLammps wrapper
LAMMPS output is captured by PyLammps wrapper
LAMMPS output is captured by PyLammps wrapper
LAMMPS output is captured by PyLammps wrapper
LAMMPS output is captured by PyLammps wrapper
LAMMPS output is captured by PyLammps wrapper
LAMMPS output is captured by PyLammps wrapper
LAMMPS output is captured by PyLammps wrapper
LAMMPS output is captured by PyLammps wrapper
LAMMPS output is captured by PyLammps wrapper
LAMMPS output is captured by PyLammps wrapper
LAMMPS output is captured by PyLammps wrapper
LAMMPS output is captured by PyLammps wrapper
LAMMPS output is captured by PyLammps wrapper
LAMMPS output is captured by PyLammps wrapper
LAMMPS output is captured by PyLammps wrapper
LAMMPS output is captured by PyLammps wrapper
LAMMPS output is captured by PyLammps wrapper
LAMMPS output is captured by PyLammps wrapper
LAMMPS output is captured by PyLammps wrapper
LAMMPS output is captured by PyLammps wrapper
LAMMPS output is captured by PyLammps wrapper
LAMMPS output is captured by PyLammps wrapper
LAMMPS output is captured by PyLammps wrapper
LAMMPS output is captured by PyLammps wrapper
LAMMPS output is captured by PyLammps wrapper
LAMMPS output is captured by PyLammps wrapper
LAMMPS output is captured by PyLammps wrapper
LAMMPS output is captured by PyLammps wrapper
LAMMPS output is captured by PyLammps wrapper
LAMMPS output is captured by PyLammps wrapper
LAMMPS output is captured by PyLammps wrapper
LAMMPS output is captured by PyLammps wrapper
LAMMPS output is captured by PyLammps wrapper
LAMMPS output is captured by PyLammps wrapper
LAMMPS output is captured by PyLammps wrapper
LAMMPS output is captured by PyLammps wrapper
LAMMPS output is captured by PyLammps wrapper
LAMMPS output is captured by PyLammps wrapper
LAMMPS output is captured by PyLammps wrapper
LAMMPS output is captured by PyLammps wrapper
LAMMPS output is captured by PyLammps wrapper
LAMMPS output is captured by PyLammps wrapper
LAMMPS output is captured by PyLammps wrapper
LAMMPS output is captured by PyLammps wrapper
LAMMPS output is captured by PyLammps wrapper
LAMMPS output is captured by PyLammps wrapper
LAMMPS output is captured by PyLammps wrapper
LAMMPS output is captured by PyLammps wrapper
LAMMPS output is captured by PyLammps wrapper
LAMMPS output is captured by PyLammps wrapper
LAMMPS output is captured by PyLammps wrapper
LAMMPS output is captured by PyLammps wrapper
LAMMPS output is captured by PyLammps wrapper
LAMMPS output is captured by PyLammps wrapper
LAMMPS output is captured by PyLammps wrapper
LAMMPS output is captured by PyLammps wrapper
LAMMPS output is captured by PyLammps wrapper
LAMMPS output is captured by PyLammps wrapper
LAMMPS output is captured by PyLammps wrapper
LAMMPS output is captured by PyLammps wrapper
LAMMPS output is captured by PyLammps wrapper
LAMMPS output is captured by PyLammps wrapper
LAMMPS output is captured by PyLammps wrapper
LAMMPS output is captured by PyLammps wrapper
LAMMPS output is captured by PyLammps wrapper
LAMMPS output is captured by PyLammps wrapper
LAMMPS output is captured by PyLammps wrapper
LAMMPS output is captured by PyLammps wrapper
LAMMPS output is captured by PyLammps wrapper
LAMMPS output is captured by PyLammps wrapper
LAMMPS output is captured by PyLammps wrapper
LAMMPS output is captured by PyLammps wrapper
LAMMPS output is captured by PyLammps wrapper
LAMMPS output is captured by PyLammps wrapper
LAMMPS output is captured by PyLammps wrapper
LAMMPS output is captured by PyLammps wrapper
LAMMPS output is captured by PyLammps wrapper
LAMMPS output is captured by PyLammps wrapper
LAMMPS output is captured by PyLammps wrapper
LAMMPS output is captured by PyLammps wrapper
LAMMPS output is captured by PyLammps wrapper
LAMMPS output is captured by PyLammps wrapper
LAMMPS output is captured by PyLammps wrapper
LAMMPS output is captured by PyLammps wrapper
LAMMPS output is captured by PyLammps wrapper
LAMMPS output is captured by PyLammps wrapper
LAMMPS output is captured by PyLammps wrapper
LAMMPS output is captured by PyLammps wrapper
LAMMPS output is captured by PyLammps wrapper
LAMMPS output is captured by PyLammps wrapper
LAMMPS output is captured by PyLammps wrapper
LAMMPS output is captured by PyLammps wrapper
LAMMPS output is captured by PyLammps wrapper
LAMMPS output is captured by PyLammps wrapper
LAMMPS output is captured by PyLammps wrapper
LAMMPS output is captured by PyLammps wrapper
LAMMPS output is captured by PyLammps wrapper
LAMMPS output is captured by PyLammps wrapper
LAMMPS output is captured by PyLammps wrapper
LAMMPS output is captured by PyLammps wrapper
LAMMPS output is captured by PyLammps wrapper
LAMMPS output is captured by PyLammps wrapper
LAMMPS output is captured by PyLammps wrapper
LAMMPS output is captured by PyLammps wrapper
LAMMPS output is captured by PyLammps wrapper
LAMMPS output is captured by PyLammps wrapper
LAMMPS output is captured by PyLammps wrapper
LAMMPS output is captured by PyLammps wrapper
LAMMPS output is captured by PyLammps wrapper
LAMMPS output is captured by PyLammps wrapper
LAMMPS output is captured by PyLammps wrapper
LAMMPS output is captured by PyLammps wrapper
LAMMPS output is captured by PyLammps wrapper
LAMMPS output is captured by PyLammps wrapper
LAMMPS output is captured by PyLammps wrapper
LAMMPS output is captured by PyLammps wrapper
LAMMPS output is captured by PyLammps wrapper
LAMMPS output is captured by PyLammps wrapper
LAMMPS output is captured by PyLammps wrapper
LAMMPS output is captured by PyLammps wrapper
LAMMPS output is captured by PyLammps wrapper
LAMMPS output is captured by PyLammps wrapper
LAMMPS output is captured by PyLammps wrapper
LAMMPS output is captured by PyLammps wrapper
LAMMPS output is captured by PyLammps wrapper
LAMMPS output is captured by PyLammps wrapper
LAMMPS output is captured by PyLammps wrapper
LAMMPS output is captured by PyLammps wrapper
LAMMPS output is captured by PyLammps wrapper
LAMMPS output is captured by PyLammps wrapper
LAMMPS output is captured by PyLammps wrapper
LAMMPS output is captured by PyLammps wrapper
LAMMPS output is captured by PyLammps wrapper
LAMMPS output is captured by PyLammps wrapper
LAMMPS output is captured by PyLammps wrapper
LAMMPS output is captured by PyLammps wrapper
LAMMPS output is captured by PyLammps wrapper
LAMMPS output is captured by PyLammps wrapper
LAMMPS output is captured by PyLammps wrapper
LAMMPS output is captured by PyLammps wrapper
LAMMPS output is captured by PyLammps wrapper
LAMMPS output is captured by PyLammps wrapper
LAMMPS output is captured by PyLammps wrapper
LAMMPS output is captured by PyLammps wrapper
LAMMPS output is captured by PyLammps wrapper
LAMMPS output is captured by PyLammps wrapper
LAMMPS output is captured by PyLammps wrapper
LAMMPS output is captured by PyLammps wrapper
LAMMPS output is captured by PyLammps wrapper
LAMMPS output is captured by PyLammps wrapper
LAMMPS output is captured by PyLammps wrapper
LAMMPS output is captured by PyLammps wrapper
LAMMPS output is captured by PyLammps wrapper
LAMMPS output is captured by PyLammps wrapper
LAMMPS output is captured by PyLammps wrapper
LAMMPS output is captured by PyLammps wrapper
LAMMPS output is captured by PyLammps wrapper
LAMMPS output is captured by PyLammps wrapper
LAMMPS output is captured by PyLammps wrapper
LAMMPS output is captured by PyLammps wrapper
LAMMPS output is captured by PyLammps wrapper
LAMMPS output is captured by PyLammps wrapper
LAMMPS output is captured by PyLammps wrapper
LAMMPS output is captured by PyLammps wrapper
LAMMPS output is captured by PyLammps wrapper
LAMMPS output is captured by PyLammps wrapper
LAMMPS output is captured by PyLammps wrapper
LAMMPS output is captured by PyLammps wrapper
LAMMPS output is captured by PyLammps wrapper
LAMMPS output is captured by PyLammps wrapper
LAMMPS output is captured by PyLammps wrapper
LAMMPS output is captured by PyLammps wrapper
LAMMPS output is captured by PyLammps wrapper
LAMMPS output is captured by PyLammps wrapper
LAMMPS output is captured by PyLammps wrapper
LAMMPS output is captured by PyLammps wrapper
LAMMPS output is captured by PyLammps wrapper
LAMMPS output is captured by PyLammps wrapper
LAMMPS output is captured by PyLammps wrapper
LAMMPS output is captured by PyLammps wrapper
LAMMPS output is captured by PyLammps wrapper
LAMMPS output is captured by PyLammps wrapper
LAMMPS output is captured by PyLammps wrapper
LAMMPS output is captured by PyLammps wrapper
LAMMPS output is captured by PyLammps wrapper
LAMMPS output is captured by PyLammps wrapper
LAMMPS output is captured by PyLammps wrapper
LAMMPS output is captured by PyLammps wrapper
LAMMPS output is captured by PyLammps wrapper
LAMMPS output is captured by PyLammps wrapper
LAMMPS output is captured by PyLammps wrapper
LAMMPS output is captured by PyLammps wrapper
LAMMPS output is captured by PyLammps wrapper
LAMMPS output is captured by PyLammps wrapper
LAMMPS output is captured by PyLammps wrapper
LAMMPS output is captured by PyLammps wrapper
LAMMPS output is captured by PyLammps wrapper
LAMMPS output is captured by PyLammps wrapper
LAMMPS output is captured by PyLammps wrapper
LAMMPS output is captured by PyLammps wrapper
LAMMPS output is captured by PyLammps wrapper
LAMMPS output is captured by PyLammps wrapper
LAMMPS output is captured by PyLammps wrapper
LAMMPS output is captured by PyLammps wrapper
LAMMPS output is captured by PyLammps wrapper
LAMMPS output is captured by PyLammps wrapper
LAMMPS output is captured by PyLammps wrapper
LAMMPS output is captured by PyLammps wrapper
LAMMPS output is captured by PyLammps wrapper
LAMMPS output is captured by PyLammps wrapper
LAMMPS output is captured by PyLammps wrapper
LAMMPS output is captured by PyLammps wrapper
LAMMPS output is captured by PyLammps wrapper
LAMMPS output is captured by PyLammps wrapper
LAMMPS output is captured by PyLammps wrapper
LAMMPS output is captured by PyLammps wrapper
LAMMPS output is captured by PyLammps wrapper
LAMMPS output is captured by PyLammps wrapper
LAMMPS output is captured by PyLammps wrapper
LAMMPS output is captured by PyLammps wrapper
LAMMPS output is captured by PyLammps wrapper
LAMMPS output is captured by PyLammps wrapper
LAMMPS output is captured by PyLammps wrapper
LAMMPS output is captured by PyLammps wrapper
LAMMPS output is captured by PyLammps wrapper
LAMMPS output is captured by PyLammps wrapper
LAMMPS output is captured by PyLammps wrapper
LAMMPS output is captured by PyLammps wrapper
LAMMPS output is captured by PyLammps wrapper
LAMMPS output is captured by PyLammps wrapper
LAMMPS output is captured by PyLammps wrapper
LAMMPS output is captured by PyLammps wrapper
LAMMPS output is captured by PyLammps wrapper
LAMMPS output is captured by PyLammps wrapper
LAMMPS output is captured by PyLammps wrapper
LAMMPS output is captured by PyLammps wrapper
LAMMPS output is captured by PyLammps wrapper
LAMMPS output is captured by PyLammps wrapper
LAMMPS output is captured by PyLammps wrapper
LAMMPS output is captured by PyLammps wrapper
LAMMPS output is captured by PyLammps wrapper
LAMMPS output is captured by PyLammps wrapper
LAMMPS output is captured by PyLammps wrapper
LAMMPS output is captured by PyLammps wrapper
LAMMPS output is captured by PyLammps wrapper
LAMMPS output is captured by PyLammps wrapper
LAMMPS output is captured by PyLammps wrapper
LAMMPS output is captured by PyLammps wrapper
LAMMPS output is captured by PyLammps wrapper
LAMMPS output is captured by PyLammps wrapper
LAMMPS output is captured by PyLammps wrapper
LAMMPS output is captured by PyLammps wrapper
LAMMPS output is captured by PyLammps wrapper
LAMMPS output is captured by PyLammps wrapper
LAMMPS output is captured by PyLammps wrapper
LAMMPS output is captured by PyLammps wrapper
LAMMPS output is captured by PyLammps wrapper
LAMMPS output is captured by PyLammps wrapper
LAMMPS output is captured by PyLammps wrapper
LAMMPS output is captured by PyLammps wrapper
LAMMPS output is captured by PyLammps wrapper
LAMMPS output is captured by PyLammps wrapper
LAMMPS output is captured by PyLammps wrapper
LAMMPS output is captured by PyLammps wrapper
LAMMPS output is captured by PyLammps wrapper
LAMMPS output is captured by PyLammps wrapper
LAMMPS output is captured by PyLammps wrapper
LAMMPS output is captured by PyLammps wrapper
LAMMPS output is captured by PyLammps wrapper
LAMMPS output is captured by PyLammps wrapper
LAMMPS output is captured by PyLammps wrapper
LAMMPS output is captured by PyLammps wrapper
LAMMPS output is captured by PyLammps wrapper
LAMMPS output is captured by PyLammps wrapper
LAMMPS output is captured by PyLammps wrapper
LAMMPS output is captured by PyLammps wrapper
LAMMPS output is captured by PyLammps wrapper
LAMMPS output is captured by PyLammps wrapper
LAMMPS output is captured by PyLammps wrapper
LAMMPS output is captured by PyLammps wrapper
LAMMPS output is captured by PyLammps wrapper
LAMMPS output is captured by PyLammps wrapper
LAMMPS output is captured by PyLammps wrapper
LAMMPS output is captured by PyLammps wrapper
LAMMPS output is captured by PyLammps wrapper
LAMMPS output is captured by PyLammps wrapper
LAMMPS output is captured by PyLammps wrapper
LAMMPS output is captured by PyLammps wrapper
LAMMPS output is captured by PyLammps wrapper
LAMMPS output is captured by PyLammps wrapper
LAMMPS output is captured by PyLammps wrapper
LAMMPS output is captured by PyLammps wrapper
LAMMPS output is captured by PyLammps wrapper
LAMMPS output is captured by PyLammps wrapper
LAMMPS output is captured by PyLammps wrapper
LAMMPS output is captured by PyLammps wrapper
LAMMPS output is captured by PyLammps wrapper
LAMMPS output is captured by PyLammps wrapper
LAMMPS output is captured by PyLammps wrapper
LAMMPS output is captured by PyLammps wrapper
LAMMPS output is captured by PyLammps wrapper
LAMMPS output is captured by PyLammps wrapper
LAMMPS output is captured by PyLammps wrapper
LAMMPS output is captured by PyLammps wrapper
LAMMPS output is captured by PyLammps wrapper
LAMMPS output is captured by PyLammps wrapper
LAMMPS output is captured by PyLammps wrapper
LAMMPS output is captured by PyLammps wrapper
LAMMPS output is captured by PyLammps wrapper
LAMMPS output is captured by PyLammps wrapper
LAMMPS output is captured by PyLammps wrapper
LAMMPS output is captured by PyLammps wrapper
LAMMPS output is captured by PyLammps wrapper
LAMMPS output is captured by PyLammps wrapper
LAMMPS output is captured by PyLammps wrapper
LAMMPS output is captured by PyLammps wrapper
LAMMPS output is captured by PyLammps wrapper
LAMMPS output is captured by PyLammps wrapper
LAMMPS output is captured by PyLammps wrapper
LAMMPS output is captured by PyLammps wrapper
LAMMPS output is captured by PyLammps wrapper
LAMMPS output is captured by PyLammps wrapper
LAMMPS output is captured by PyLammps wrapper
LAMMPS output is captured by PyLammps wrapper
LAMMPS output is captured by PyLammps wrapper
LAMMPS output is captured by PyLammps wrapper
LAMMPS output is captured by PyLammps wrapper
LAMMPS output is captured by PyLammps wrapper
LAMMPS output is captured by PyLammps wrapper
LAMMPS output is captured by PyLammps wrapper
LAMMPS output is captured by PyLammps wrapper
LAMMPS output is captured by PyLammps wrapper
LAMMPS output is captured by PyLammps wrapper
LAMMPS output is captured by PyLammps wrapper
LAMMPS output is captured by PyLammps wrapper
LAMMPS output is captured by PyLammps wrapper
LAMMPS output is captured by PyLammps wrapper
LAMMPS output is captured by PyLammps wrapper
LAMMPS output is captured by PyLammps wrapper
LAMMPS output is captured by PyLammps wrapper
LAMMPS output is captured by PyLammps wrapper
LAMMPS output is captured by PyLammps wrapper
LAMMPS output is captured by PyLammps wrapper
LAMMPS output is captured by PyLammps wrapper
LAMMPS output is captured by PyLammps wrapper
LAMMPS output is captured by PyLammps wrapper
LAMMPS output is captured by PyLammps wrapper
LAMMPS output is captured by PyLammps wrapper
LAMMPS output is captured by PyLammps wrapper
LAMMPS output is captured by PyLammps wrapper
LAMMPS output is captured by PyLammps wrapper
LAMMPS output is captured by PyLammps wrapper
LAMMPS output is captured by PyLammps wrapper
LAMMPS output is captured by PyLammps wrapper
LAMMPS output is captured by PyLammps wrapper
LAMMPS output is captured by PyLammps wrapper
LAMMPS output is captured by PyLammps wrapper
LAMMPS output is captured by PyLammps wrapper
LAMMPS output is captured by PyLammps wrapper
LAMMPS output is captured by PyLammps wrapper
LAMMPS output is captured by PyLammps wrapper
LAMMPS output is captured by PyLammps wrapper
LAMMPS output is captured by PyLammps wrapper
LAMMPS output is captured by PyLammps wrapper
LAMMPS output is captured by PyLammps wrapper
LAMMPS output is captured by PyLammps wrapper
LAMMPS output is captured by PyLammps wrapper
LAMMPS output is captured by PyLammps wrapper
LAMMPS output is captured by PyLammps wrapper
LAMMPS output is captured by PyLammps wrapper
LAMMPS output is captured by PyLammps wrapper
LAMMPS output is captured by PyLammps wrapper
LAMMPS output is captured by PyLammps wrapper
LAMMPS output is captured by PyLammps wrapper
LAMMPS output is captured by PyLammps wrapper
LAMMPS output is captured by PyLammps wrapper
LAMMPS output is captured by PyLammps wrapper
LAMMPS output is captured by PyLammps wrapper
LAMMPS output is captured by PyLammps wrapper
LAMMPS output is captured by PyLammps wrapper
LAMMPS output is captured by PyLammps wrapper
LAMMPS output is captured by PyLammps wrapper
LAMMPS output is captured by PyLammps wrapper
LAMMPS output is captured by PyLammps wrapper
LAMMPS output is captured by PyLammps wrapper
LAMMPS output is captured by PyLammps wrapper
LAMMPS output is captured by PyLammps wrapper
LAMMPS output is captured by PyLammps wrapper
LAMMPS output is captured by PyLammps wrapper
LAMMPS output is captured by PyLammps wrapper
LAMMPS output is captured by PyLammps wrapper
LAMMPS output is captured by PyLammps wrapper
LAMMPS output is captured by PyLammps wrapper
LAMMPS output is captured by PyLammps wrapper
LAMMPS output is captured by PyLammps wrapper
LAMMPS output is captured by PyLammps wrapper
LAMMPS output is captured by PyLammps wrapper
LAMMPS output is captured by PyLammps wrapper
LAMMPS output is captured by PyLammps wrapper
LAMMPS output is captured by PyLammps wrapper
LAMMPS output is captured by PyLammps wrapper
LAMMPS output is captured by PyLammps wrapper
LAMMPS output is captured by PyLammps wrapper
LAMMPS output is captured by PyLammps wrapper
LAMMPS output is captured by PyLammps wrapper
LAMMPS output is captured by PyLammps wrapper
LAMMPS output is captured by PyLammps wrapper
LAMMPS output is captured by PyLammps wrapper
LAMMPS output is captured by PyLammps wrapper
LAMMPS output is captured by PyLammps wrapper
LAMMPS output is captured by PyLammps wrapper
LAMMPS output is captured by PyLammps wrapper
LAMMPS output is captured by PyLammps wrapper
LAMMPS output is captured by PyLammps wrapper
LAMMPS output is captured by PyLammps wrapper
LAMMPS output is captured by PyLammps wrapper
LAMMPS output is captured by PyLammps wrapper
LAMMPS output is captured by PyLammps wrapper
LAMMPS output is captured by PyLammps wrapper
LAMMPS output is captured by PyLammps wrapper
LAMMPS output is captured by PyLammps wrapper
LAMMPS output is captured by PyLammps wrapper
LAMMPS output is captured by PyLammps wrapper
LAMMPS output is captured by PyLammps wrapper
LAMMPS output is captured by PyLammps wrapper
LAMMPS output is captured by PyLammps wrapper
LAMMPS output is captured by PyLammps wrapper
LAMMPS output is captured by PyLammps wrapper
LAMMPS output is captured by PyLammps wrapper
LAMMPS output is captured by PyLammps wrapper
LAMMPS output is captured by PyLammps wrapper
LAMMPS output is captured by PyLammps wrapper
LAMMPS output is captured by PyLammps wrapper
LAMMPS output is captured by PyLammps wrapper
LAMMPS output is captured by PyLammps wrapper
LAMMPS output is captured by PyLammps wrapper
LAMMPS output is captured by PyLammps wrapper
LAMMPS output is captured by PyLammps wrapper
LAMMPS output is captured by PyLammps wrapper
LAMMPS output is captured by PyLammps wrapper
LAMMPS output is captured by PyLammps wrapper
LAMMPS output is captured by PyLammps wrapper
LAMMPS output is captured by PyLammps wrapper
LAMMPS output is captured by PyLammps wrapper
LAMMPS output is captured by PyLammps wrapper
LAMMPS output is captured by PyLammps wrapper
LAMMPS output is captured by PyLammps wrapper
LAMMPS output is captured by PyLammps wrapper
LAMMPS output is captured by PyLammps wrapper
LAMMPS output is captured by PyLammps wrapper
LAMMPS output is captured by PyLammps wrapper
LAMMPS output is captured by PyLammps wrapper
LAMMPS output is captured by PyLammps wrapper
LAMMPS output is captured by PyLammps wrapper
LAMMPS output is captured by PyLammps wrapper
LAMMPS output is captured by PyLammps wrapper
LAMMPS output is captured by PyLammps wrapper
LAMMPS output is captured by PyLammps wrapper
LAMMPS output is captured by PyLammps wrapper
LAMMPS output is captured by PyLammps wrapper
LAMMPS output is captured by PyLammps wrapper
LAMMPS output is captured by PyLammps wrapper
LAMMPS output is captured by PyLammps wrapper
LAMMPS output is captured by PyLammps wrapper
LAMMPS output is captured by PyLammps wrapper
LAMMPS output is captured by PyLammps wrapper
LAMMPS output is captured by PyLammps wrapper
LAMMPS output is captured by PyLammps wrapper
LAMMPS output is captured by PyLammps wrapper
LAMMPS output is captured by PyLammps wrapper
LAMMPS output is captured by PyLammps wrapper
LAMMPS output is captured by PyLammps wrapper
LAMMPS output is captured by PyLammps wrapper
LAMMPS output is captured by PyLammps wrapper
LAMMPS output is captured by PyLammps wrapper
LAMMPS output is captured by PyLammps wrapper
LAMMPS output is captured by PyLammps wrapper
LAMMPS output is captured by PyLammps wrapper
LAMMPS output is captured by PyLammps wrapper
LAMMPS output is captured by PyLammps wrapper
LAMMPS output is captured by PyLammps wrapper
LAMMPS output is captured by PyLammps wrapper
LAMMPS output is captured by PyLammps wrapper
LAMMPS output is captured by PyLammps wrapper
LAMMPS output is captured by PyLammps wrapper
LAMMPS output is captured by PyLammps wrapper
LAMMPS output is captured by PyLammps wrapper
LAMMPS output is captured by PyLammps wrapper
LAMMPS output is captured by PyLammps wrapper
LAMMPS output is captured by PyLammps wrapper
LAMMPS output is captured by PyLammps wrapper
LAMMPS output is captured by PyLammps wrapper
LAMMPS output is captured by PyLammps wrapper
LAMMPS output is captured by PyLammps wrapper
LAMMPS output is captured by PyLammps wrapper
LAMMPS output is captured by PyLammps wrapper
LAMMPS output is captured by PyLammps wrapper
LAMMPS output is captured by PyLammps wrapper
LAMMPS output is captured by PyLammps wrapper
LAMMPS output is captured by PyLammps wrapper
LAMMPS output is captured by PyLammps wrapper
LAMMPS output is captured by PyLammps wrapper
LAMMPS output is captured by PyLammps wrapper
LAMMPS output is captured by PyLammps wrapper
LAMMPS output is captured by PyLammps wrapper
LAMMPS output is captured by PyLammps wrapper
LAMMPS output is captured by PyLammps wrapper
LAMMPS output is captured by PyLammps wrapper
LAMMPS output is captured by PyLammps wrapper
LAMMPS output is captured by PyLammps wrapper
LAMMPS output is captured by PyLammps wrapper
LAMMPS output is captured by PyLammps wrapper
LAMMPS output is captured by PyLammps wrapper
LAMMPS output is captured by PyLammps wrapper
LAMMPS output is captured by PyLammps wrapper
LAMMPS output is captured by PyLammps wrapper
LAMMPS output is captured by PyLammps wrapper
LAMMPS output is captured by PyLammps wrapper
LAMMPS output is captured by PyLammps wrapper
LAMMPS output is captured by PyLammps wrapper
LAMMPS output is captured by PyLammps wrapper
LAMMPS output is captured by PyLammps wrapper
LAMMPS output is captured by PyLammps wrapper
LAMMPS output is captured by PyLammps wrapper
LAMMPS output is captured by PyLammps wrapper
LAMMPS output is captured by PyLammps wrapper
LAMMPS output is captured by PyLammps wrapper
LAMMPS output is captured by PyLammps wrapper
LAMMPS output is captured by PyLammps wrapper
LAMMPS output is captured by PyLammps wrapper
LAMMPS output is captured by PyLammps wrapper
LAMMPS output is captured by PyLammps wrapper
LAMMPS output is captured by PyLammps wrapper
LAMMPS output is captured by PyLammps wrapper
LAMMPS output is captured by PyLammps wrapper
LAMMPS output is captured by PyLammps wrapper
LAMMPS output is captured by PyLammps wrapper
LAMMPS output is captured by PyLammps wrapper
LAMMPS output is captured by PyLammps wrapper
LAMMPS output is captured by PyLammps wrapper
LAMMPS output is captured by PyLammps wrapper
LAMMPS output is captured by PyLammps wrapper
LAMMPS output is captured by PyLammps wrapper
LAMMPS output is captured by PyLammps wrapper
LAMMPS output is captured by PyLammps wrapper
LAMMPS output is captured by PyLammps wrapper
LAMMPS output is captured by PyLammps wrapper
LAMMPS output is captured by PyLammps wrapper
LAMMPS output is captured by PyLammps wrapper
LAMMPS output is captured by PyLammps wrapper
LAMMPS output is captured by PyLammps wrapper
LAMMPS output is captured by PyLammps wrapper
LAMMPS output is captured by PyLammps wrapper
LAMMPS output is captured by PyLammps wrapper
LAMMPS output is captured by PyLammps wrapper
LAMMPS output is captured by PyLammps wrapper
LAMMPS output is captured by PyLammps wrapper
LAMMPS output is captured by PyLammps wrapper
LAMMPS output is captured by PyLammps wrapper
LAMMPS output is captured by PyLammps wrapper
LAMMPS output is captured by PyLammps wrapper
LAMMPS output is captured by PyLammps wrapper
LAMMPS output is captured by PyLammps wrapper
LAMMPS output is captured by PyLammps wrapper
LAMMPS output is captured by PyLammps wrapper
LAMMPS output is captured by PyLammps wrapper
LAMMPS output is captured by PyLammps wrapper
LAMMPS output is captured by PyLammps wrapper
LAMMPS output is captured by PyLammps wrapper
LAMMPS output is captured by PyLammps wrapper
LAMMPS output is captured by PyLammps wrapper
LAMMPS output is captured by PyLammps wrapper
LAMMPS output is captured by PyLammps wrapper
LAMMPS output is captured by PyLammps wrapper
LAMMPS output is captured by PyLammps wrapper
LAMMPS output is captured by PyLammps wrapper
LAMMPS output is captured by PyLammps wrapper
LAMMPS output is captured by PyLammps wrapper
LAMMPS output is captured by PyLammps wrapper
LAMMPS output is captured by PyLammps wrapper
LAMMPS output is captured by PyLammps wrapper
LAMMPS output is captured by PyLammps wrapper
LAMMPS output is captured by PyLammps wrapper
LAMMPS output is captured by PyLammps wrapper
LAMMPS output is captured by PyLammps wrapper
LAMMPS output is captured by PyLammps wrapper
LAMMPS output is captured by PyLammps wrapper
LAMMPS output is captured by PyLammps wrapper
LAMMPS output is captured by PyLammps wrapper
LAMMPS output is captured by PyLammps wrapper
LAMMPS output is captured by PyLammps wrapper
LAMMPS output is captured by PyLammps wrapper
LAMMPS output is captured by PyLammps wrapper
LAMMPS output is captured by PyLammps wrapper
LAMMPS output is captured by PyLammps wrapper
LAMMPS output is captured by PyLammps wrapper
LAMMPS output is captured by PyLammps wrapper
LAMMPS output is captured by PyLammps wrapper
LAMMPS output is captured by PyLammps wrapper
LAMMPS output is captured by PyLammps wrapper
LAMMPS output is captured by PyLammps wrapper
LAMMPS output is captured by PyLammps wrapper
LAMMPS output is captured by PyLammps wrapper
LAMMPS output is captured by PyLammps wrapper
LAMMPS output is captured by PyLammps wrapper
