LAMMPS (09 Jan 2020)
  using 1 OpenMP thread(s) per MPI task
Reading data file ...
  triclinic box = (0 0 0) to (26.6559 23.0847 43.4411) with tilt (-13.328 0 0)
  2 by 3 by 4 MPI processor grid
  reading atoms ...
  2592 atoms
  scanning bonds ...
  1 = max bonds/atom
  scanning angles ...
  1 = max angles/atom
  reading bonds ...
  1728 bonds
  reading angles ...
  864 angles
Finding 1-2 1-3 1-4 neighbors ...
  special bond factors lj:   0          0          0         
  special bond factors coul: 0          0          0         
  2 = max # of 1-2 neighbors
  1 = max # of 1-3 neighbors
  1 = max # of 1-4 neighbors
  2 = max # of special neighbors
  special bonds CPU = 0.00572014 secs
  read_data CPU = 0.022002 secs
1728 atoms in group hydrogen
864 atoms in group oxygen
Finding SHAKE clusters ...
  0 = # of size 2 clusters
  0 = # of size 3 clusters
  0 = # of size 4 clusters
  864 = # of frozen angles
  find clusters CPU = 0.000838041 secs
Total wall time: 0:00:24
LAMMPS output is captured by PyLammps wrapper
***** initial *****
lx: 26.65592
ly: 23.084704
lz: 43.44111
xy: -13.32796
xz: 0.0
ratios:     0.866025     1.629698    -0.500000
LAMMPS output is captured by PyLammps wrapper
LAMMPS output is captured by PyLammps wrapper
LAMMPS output is captured by PyLammps wrapper
LAMMPS output is captured by PyLammps wrapper
LAMMPS output is captured by PyLammps wrapper
LAMMPS output is captured by PyLammps wrapper
LAMMPS output is captured by PyLammps wrapper
LAMMPS output is captured by PyLammps wrapper
LAMMPS output is captured by PyLammps wrapper
LAMMPS output is captured by PyLammps wrapper
LAMMPS output is captured by PyLammps wrapper
LAMMPS output is captured by PyLammps wrapper
LAMMPS output is captured by PyLammps wrapper
LAMMPS output is captured by PyLammps wrapper
LAMMPS output is captured by PyLammps wrapper
LAMMPS output is captured by PyLammps wrapper
LAMMPS output is captured by PyLammps wrapper
LAMMPS output is captured by PyLammps wrapper
LAMMPS output is captured by PyLammps wrapper
LAMMPS output is captured by PyLammps wrapper
LAMMPS output is captured by PyLammps wrapper
LAMMPS output is captured by PyLammps wrapper
LAMMPS output is captured by PyLammps wrapper
LAMMPS output is captured by PyLammps wrapper
LAMMPS output is captured by PyLammps wrapper
LAMMPS output is captured by PyLammps wrapper
LAMMPS output is captured by PyLammps wrapper
LAMMPS output is captured by PyLammps wrapper
LAMMPS output is captured by PyLammps wrapper
LAMMPS output is captured by PyLammps wrapper
LAMMPS output is captured by PyLammps wrapper
LAMMPS output is captured by PyLammps wrapper
LAMMPS output is captured by PyLammps wrapper
LAMMPS output is captured by PyLammps wrapper
LAMMPS output is captured by PyLammps wrapper
LAMMPS output is captured by PyLammps wrapper
LAMMPS output is captured by PyLammps wrapper
LAMMPS output is captured by PyLammps wrapper
LAMMPS output is captured by PyLammps wrapper
LAMMPS output is captured by PyLammps wrapper
LAMMPS output is captured by PyLammps wrapper
LAMMPS output is captured by PyLammps wrapper
LAMMPS output is captured by PyLammps wrapper
LAMMPS output is captured by PyLammps wrapper
LAMMPS output is captured by PyLammps wrapper
LAMMPS output is captured by PyLammps wrapper
LAMMPS output is captured by PyLammps wrapper
LAMMPS output is captured by PyLammps wrapper
LAMMPS output is captured by PyLammps wrapper
LAMMPS output is captured by PyLammps wrapper
LAMMPS output is captured by PyLammps wrapper
LAMMPS output is captured by PyLammps wrapper
LAMMPS output is captured by PyLammps wrapper
LAMMPS output is captured by PyLammps wrapper
LAMMPS output is captured by PyLammps wrapper
LAMMPS output is captured by PyLammps wrapper
LAMMPS output is captured by PyLammps wrapper
LAMMPS output is captured by PyLammps wrapper
LAMMPS output is captured by PyLammps wrapper
LAMMPS output is captured by PyLammps wrapper
LAMMPS output is captured by PyLammps wrapper
LAMMPS output is captured by PyLammps wrapper
LAMMPS output is captured by PyLammps wrapper
LAMMPS output is captured by PyLammps wrapper
LAMMPS output is captured by PyLammps wrapper
LAMMPS output is captured by PyLammps wrapper
LAMMPS output is captured by PyLammps wrapper
LAMMPS output is captured by PyLammps wrapper
LAMMPS output is captured by PyLammps wrapper
LAMMPS output is captured by PyLammps wrapper
LAMMPS output is captured by PyLammps wrapper
LAMMPS output is captured by PyLammps wrapper
LAMMPS output is captured by PyLammps wrapper
LAMMPS output is captured by PyLammps wrapper
LAMMPS output is captured by PyLammps wrapper
LAMMPS output is captured by PyLammps wrapper
LAMMPS output is captured by PyLammps wrapper
LAMMPS output is captured by PyLammps wrapper
LAMMPS output is captured by PyLammps wrapper
LAMMPS output is captured by PyLammps wrapper
LAMMPS output is captured by PyLammps wrapper
LAMMPS output is captured by PyLammps wrapper
LAMMPS output is captured by PyLammps wrapper
LAMMPS output is captured by PyLammps wrapper
LAMMPS output is captured by PyLammps wrapper
LAMMPS output is captured by PyLammps wrapper
LAMMPS output is captured by PyLammps wrapper
LAMMPS output is captured by PyLammps wrapper
LAMMPS output is captured by PyLammps wrapper
LAMMPS output is captured by PyLammps wrapper
LAMMPS output is captured by PyLammps wrapper
LAMMPS output is captured by PyLammps wrapper
LAMMPS output is captured by PyLammps wrapper
LAMMPS output is captured by PyLammps wrapper
LAMMPS output is captured by PyLammps wrapper
LAMMPS output is captured by PyLammps wrapper
LAMMPS output is captured by PyLammps wrapper
LAMMPS output is captured by PyLammps wrapper
LAMMPS output is captured by PyLammps wrapper
LAMMPS output is captured by PyLammps wrapper
LAMMPS output is captured by PyLammps wrapper
LAMMPS output is captured by PyLammps wrapper
LAMMPS output is captured by PyLammps wrapper
LAMMPS output is captured by PyLammps wrapper
LAMMPS output is captured by PyLammps wrapper
LAMMPS output is captured by PyLammps wrapper
LAMMPS output is captured by PyLammps wrapper
LAMMPS output is captured by PyLammps wrapper
LAMMPS output is captured by PyLammps wrapper
LAMMPS output is captured by PyLammps wrapper
LAMMPS output is captured by PyLammps wrapper
LAMMPS output is captured by PyLammps wrapper
LAMMPS output is captured by PyLammps wrapper
LAMMPS output is captured by PyLammps wrapper
LAMMPS output is captured by PyLammps wrapper
LAMMPS output is captured by PyLammps wrapper
LAMMPS output is captured by PyLammps wrapper
LAMMPS output is captured by PyLammps wrapper
LAMMPS output is captured by PyLammps wrapper
LAMMPS output is captured by PyLammps wrapper
LAMMPS output is captured by PyLammps wrapper
LAMMPS output is captured by PyLammps wrapper
LAMMPS output is captured by PyLammps wrapper
LAMMPS output is captured by PyLammps wrapper
LAMMPS output is captured by PyLammps wrapper
LAMMPS output is captured by PyLammps wrapper
LAMMPS output is captured by PyLammps wrapper
LAMMPS output is captured by PyLammps wrapper
LAMMPS output is captured by PyLammps wrapper
LAMMPS output is captured by PyLammps wrapper
LAMMPS output is captured by PyLammps wrapper
LAMMPS output is captured by PyLammps wrapper
LAMMPS output is captured by PyLammps wrapper
LAMMPS output is captured by PyLammps wrapper
LAMMPS output is captured by PyLammps wrapper
LAMMPS output is captured by PyLammps wrapper
LAMMPS output is captured by PyLammps wrapper
LAMMPS output is captured by PyLammps wrapper
LAMMPS output is captured by PyLammps wrapper
LAMMPS output is captured by PyLammps wrapper
LAMMPS output is captured by PyLammps wrapper
LAMMPS output is captured by PyLammps wrapper
LAMMPS output is captured by PyLammps wrapper
LAMMPS output is captured by PyLammps wrapper
LAMMPS output is captured by PyLammps wrapper
LAMMPS output is captured by PyLammps wrapper
LAMMPS output is captured by PyLammps wrapper
LAMMPS output is captured by PyLammps wrapper
LAMMPS output is captured by PyLammps wrapper
LAMMPS output is captured by PyLammps wrapper
LAMMPS output is captured by PyLammps wrapper
LAMMPS output is captured by PyLammps wrapper
LAMMPS output is captured by PyLammps wrapper
LAMMPS output is captured by PyLammps wrapper
LAMMPS output is captured by PyLammps wrapper
LAMMPS output is captured by PyLammps wrapper
LAMMPS output is captured by PyLammps wrapper
LAMMPS output is captured by PyLammps wrapper
LAMMPS output is captured by PyLammps wrapper
LAMMPS output is captured by PyLammps wrapper
LAMMPS output is captured by PyLammps wrapper
LAMMPS output is captured by PyLammps wrapper
LAMMPS output is captured by PyLammps wrapper
LAMMPS output is captured by PyLammps wrapper
LAMMPS output is captured by PyLammps wrapper
LAMMPS output is captured by PyLammps wrapper
LAMMPS output is captured by PyLammps wrapper
LAMMPS output is captured by PyLammps wrapper
LAMMPS output is captured by PyLammps wrapper
LAMMPS output is captured by PyLammps wrapper
LAMMPS output is captured by PyLammps wrapper
LAMMPS output is captured by PyLammps wrapper
LAMMPS output is captured by PyLammps wrapper
LAMMPS output is captured by PyLammps wrapper
LAMMPS output is captured by PyLammps wrapper
LAMMPS output is captured by PyLammps wrapper
LAMMPS output is captured by PyLammps wrapper
LAMMPS output is captured by PyLammps wrapper
LAMMPS output is captured by PyLammps wrapper
LAMMPS output is captured by PyLammps wrapper
LAMMPS output is captured by PyLammps wrapper
LAMMPS output is captured by PyLammps wrapper
LAMMPS output is captured by PyLammps wrapper
LAMMPS output is captured by PyLammps wrapper
LAMMPS output is captured by PyLammps wrapper
LAMMPS output is captured by PyLammps wrapper
LAMMPS output is captured by PyLammps wrapper
LAMMPS output is captured by PyLammps wrapper
LAMMPS output is captured by PyLammps wrapper
LAMMPS output is captured by PyLammps wrapper
LAMMPS output is captured by PyLammps wrapper
LAMMPS output is captured by PyLammps wrapper
LAMMPS output is captured by PyLammps wrapper
LAMMPS output is captured by PyLammps wrapper
LAMMPS output is captured by PyLammps wrapper
LAMMPS output is captured by PyLammps wrapper
LAMMPS output is captured by PyLammps wrapper
LAMMPS output is captured by PyLammps wrapper
LAMMPS output is captured by PyLammps wrapper
LAMMPS output is captured by PyLammps wrapper
LAMMPS output is captured by PyLammps wrapper
LAMMPS output is captured by PyLammps wrapper
LAMMPS output is captured by PyLammps wrapper
LAMMPS output is captured by PyLammps wrapper
LAMMPS output is captured by PyLammps wrapper
LAMMPS output is captured by PyLammps wrapper
LAMMPS output is captured by PyLammps wrapper
LAMMPS output is captured by PyLammps wrapper
LAMMPS output is captured by PyLammps wrapper
LAMMPS output is captured by PyLammps wrapper
LAMMPS output is captured by PyLammps wrapper
LAMMPS output is captured by PyLammps wrapper
LAMMPS output is captured by PyLammps wrapper
LAMMPS output is captured by PyLammps wrapper
LAMMPS output is captured by PyLammps wrapper
LAMMPS output is captured by PyLammps wrapper
LAMMPS output is captured by PyLammps wrapper
LAMMPS output is captured by PyLammps wrapper
LAMMPS output is captured by PyLammps wrapper
LAMMPS output is captured by PyLammps wrapper
LAMMPS output is captured by PyLammps wrapper
LAMMPS output is captured by PyLammps wrapper
LAMMPS output is captured by PyLammps wrapper
LAMMPS output is captured by PyLammps wrapper
LAMMPS output is captured by PyLammps wrapper
LAMMPS output is captured by PyLammps wrapper
LAMMPS output is captured by PyLammps wrapper
LAMMPS output is captured by PyLammps wrapper
LAMMPS output is captured by PyLammps wrapper
LAMMPS output is captured by PyLammps wrapper
LAMMPS output is captured by PyLammps wrapper
LAMMPS output is captured by PyLammps wrapper
LAMMPS output is captured by PyLammps wrapper
LAMMPS output is captured by PyLammps wrapper
LAMMPS output is captured by PyLammps wrapper
LAMMPS output is captured by PyLammps wrapper
LAMMPS output is captured by PyLammps wrapper
LAMMPS output is captured by PyLammps wrapper
LAMMPS output is captured by PyLammps wrapper
LAMMPS output is captured by PyLammps wrapper
LAMMPS output is captured by PyLammps wrapper
LAMMPS output is captured by PyLammps wrapper
LAMMPS output is captured by PyLammps wrapper
LAMMPS output is captured by PyLammps wrapper
LAMMPS output is captured by PyLammps wrapper
LAMMPS output is captured by PyLammps wrapper
LAMMPS output is captured by PyLammps wrapper
LAMMPS output is captured by PyLammps wrapper
LAMMPS output is captured by PyLammps wrapper
LAMMPS output is captured by PyLammps wrapper
LAMMPS output is captured by PyLammps wrapper
LAMMPS output is captured by PyLammps wrapper
LAMMPS output is captured by PyLammps wrapper
LAMMPS output is captured by PyLammps wrapper
LAMMPS output is captured by PyLammps wrapper
LAMMPS output is captured by PyLammps wrapper
LAMMPS output is captured by PyLammps wrapper
LAMMPS output is captured by PyLammps wrapper
LAMMPS output is captured by PyLammps wrapper
LAMMPS output is captured by PyLammps wrapper
LAMMPS output is captured by PyLammps wrapper
LAMMPS output is captured by PyLammps wrapper
LAMMPS output is captured by PyLammps wrapper
LAMMPS output is captured by PyLammps wrapper
LAMMPS output is captured by PyLammps wrapper
LAMMPS output is captured by PyLammps wrapper
LAMMPS output is captured by PyLammps wrapper
LAMMPS output is captured by PyLammps wrapper
LAMMPS output is captured by PyLammps wrapper
LAMMPS output is captured by PyLammps wrapper
LAMMPS output is captured by PyLammps wrapper
LAMMPS output is captured by PyLammps wrapper
LAMMPS output is captured by PyLammps wrapper
LAMMPS output is captured by PyLammps wrapper
LAMMPS output is captured by PyLammps wrapper
LAMMPS output is captured by PyLammps wrapper
LAMMPS output is captured by PyLammps wrapper
LAMMPS output is captured by PyLammps wrapper
LAMMPS output is captured by PyLammps wrapper
LAMMPS output is captured by PyLammps wrapper
LAMMPS output is captured by PyLammps wrapper
LAMMPS output is captured by PyLammps wrapper
LAMMPS output is captured by PyLammps wrapper
LAMMPS output is captured by PyLammps wrapper
LAMMPS output is captured by PyLammps wrapper
LAMMPS output is captured by PyLammps wrapper
LAMMPS output is captured by PyLammps wrapper
LAMMPS output is captured by PyLammps wrapper
LAMMPS output is captured by PyLammps wrapper
LAMMPS output is captured by PyLammps wrapper
LAMMPS output is captured by PyLammps wrapper
LAMMPS output is captured by PyLammps wrapper
LAMMPS output is captured by PyLammps wrapper
LAMMPS output is captured by PyLammps wrapper
LAMMPS output is captured by PyLammps wrapper
LAMMPS output is captured by PyLammps wrapper
LAMMPS output is captured by PyLammps wrapper
LAMMPS output is captured by PyLammps wrapper
LAMMPS output is captured by PyLammps wrapper
LAMMPS output is captured by PyLammps wrapper
LAMMPS output is captured by PyLammps wrapper
LAMMPS output is captured by PyLammps wrapper
LAMMPS output is captured by PyLammps wrapper
LAMMPS output is captured by PyLammps wrapper
LAMMPS output is captured by PyLammps wrapper
LAMMPS output is captured by PyLammps wrapper
LAMMPS output is captured by PyLammps wrapper
LAMMPS output is captured by PyLammps wrapper
LAMMPS output is captured by PyLammps wrapper
LAMMPS output is captured by PyLammps wrapper
LAMMPS output is captured by PyLammps wrapper
LAMMPS output is captured by PyLammps wrapper
LAMMPS output is captured by PyLammps wrapper
LAMMPS output is captured by PyLammps wrapper
LAMMPS output is captured by PyLammps wrapper
LAMMPS output is captured by PyLammps wrapper
LAMMPS output is captured by PyLammps wrapper
LAMMPS output is captured by PyLammps wrapper
LAMMPS output is captured by PyLammps wrapper
LAMMPS output is captured by PyLammps wrapper
LAMMPS output is captured by PyLammps wrapper
LAMMPS output is captured by PyLammps wrapper
LAMMPS output is captured by PyLammps wrapper
LAMMPS output is captured by PyLammps wrapper
LAMMPS output is captured by PyLammps wrapper
LAMMPS output is captured by PyLammps wrapper
LAMMPS output is captured by PyLammps wrapper
LAMMPS output is captured by PyLammps wrapper
LAMMPS output is captured by PyLammps wrapper
LAMMPS output is captured by PyLammps wrapper
LAMMPS output is captured by PyLammps wrapper
LAMMPS output is captured by PyLammps wrapper
LAMMPS output is captured by PyLammps wrapper
LAMMPS output is captured by PyLammps wrapper
LAMMPS output is captured by PyLammps wrapper
LAMMPS output is captured by PyLammps wrapper
LAMMPS output is captured by PyLammps wrapper
LAMMPS output is captured by PyLammps wrapper
LAMMPS output is captured by PyLammps wrapper
LAMMPS output is captured by PyLammps wrapper
LAMMPS output is captured by PyLammps wrapper
LAMMPS output is captured by PyLammps wrapper
LAMMPS output is captured by PyLammps wrapper
LAMMPS output is captured by PyLammps wrapper
LAMMPS output is captured by PyLammps wrapper
LAMMPS output is captured by PyLammps wrapper
LAMMPS output is captured by PyLammps wrapper
LAMMPS output is captured by PyLammps wrapper
LAMMPS output is captured by PyLammps wrapper
LAMMPS output is captured by PyLammps wrapper
LAMMPS output is captured by PyLammps wrapper
LAMMPS output is captured by PyLammps wrapper
LAMMPS output is captured by PyLammps wrapper
LAMMPS output is captured by PyLammps wrapper
LAMMPS output is captured by PyLammps wrapper
LAMMPS output is captured by PyLammps wrapper
LAMMPS output is captured by PyLammps wrapper
LAMMPS output is captured by PyLammps wrapper
LAMMPS output is captured by PyLammps wrapper
LAMMPS output is captured by PyLammps wrapper
LAMMPS output is captured by PyLammps wrapper
LAMMPS output is captured by PyLammps wrapper
LAMMPS output is captured by PyLammps wrapper
LAMMPS output is captured by PyLammps wrapper
LAMMPS output is captured by PyLammps wrapper
LAMMPS output is captured by PyLammps wrapper
LAMMPS output is captured by PyLammps wrapper
LAMMPS output is captured by PyLammps wrapper
LAMMPS output is captured by PyLammps wrapper
LAMMPS output is captured by PyLammps wrapper
LAMMPS output is captured by PyLammps wrapper
LAMMPS output is captured by PyLammps wrapper
LAMMPS output is captured by PyLammps wrapper
LAMMPS output is captured by PyLammps wrapper
LAMMPS output is captured by PyLammps wrapper
LAMMPS output is captured by PyLammps wrapper
LAMMPS output is captured by PyLammps wrapper
LAMMPS output is captured by PyLammps wrapper
LAMMPS output is captured by PyLammps wrapper
LAMMPS output is captured by PyLammps wrapper
LAMMPS output is captured by PyLammps wrapper
LAMMPS output is captured by PyLammps wrapper
LAMMPS output is captured by PyLammps wrapper
LAMMPS output is captured by PyLammps wrapper
LAMMPS output is captured by PyLammps wrapper
LAMMPS output is captured by PyLammps wrapper
LAMMPS output is captured by PyLammps wrapper
LAMMPS output is captured by PyLammps wrapper
LAMMPS output is captured by PyLammps wrapper
LAMMPS output is captured by PyLammps wrapper
LAMMPS output is captured by PyLammps wrapper
LAMMPS output is captured by PyLammps wrapper
LAMMPS output is captured by PyLammps wrapper
LAMMPS output is captured by PyLammps wrapper
LAMMPS output is captured by PyLammps wrapper
LAMMPS output is captured by PyLammps wrapper
LAMMPS output is captured by PyLammps wrapper
LAMMPS output is captured by PyLammps wrapper
LAMMPS output is captured by PyLammps wrapper
LAMMPS output is captured by PyLammps wrapper
LAMMPS output is captured by PyLammps wrapper
LAMMPS output is captured by PyLammps wrapper
LAMMPS output is captured by PyLammps wrapper
LAMMPS output is captured by PyLammps wrapper
LAMMPS output is captured by PyLammps wrapper
LAMMPS output is captured by PyLammps wrapper
LAMMPS output is captured by PyLammps wrapper
LAMMPS output is captured by PyLammps wrapper
LAMMPS output is captured by PyLammps wrapper
LAMMPS output is captured by PyLammps wrapper
LAMMPS output is captured by PyLammps wrapper
LAMMPS output is captured by PyLammps wrapper
LAMMPS output is captured by PyLammps wrapper
LAMMPS output is captured by PyLammps wrapper
LAMMPS output is captured by PyLammps wrapper
LAMMPS output is captured by PyLammps wrapper
LAMMPS output is captured by PyLammps wrapper
LAMMPS output is captured by PyLammps wrapper
LAMMPS output is captured by PyLammps wrapper
LAMMPS output is captured by PyLammps wrapper
LAMMPS output is captured by PyLammps wrapper
LAMMPS output is captured by PyLammps wrapper
LAMMPS output is captured by PyLammps wrapper
LAMMPS output is captured by PyLammps wrapper
LAMMPS output is captured by PyLammps wrapper
LAMMPS output is captured by PyLammps wrapper
LAMMPS output is captured by PyLammps wrapper
LAMMPS output is captured by PyLammps wrapper
LAMMPS output is captured by PyLammps wrapper
LAMMPS output is captured by PyLammps wrapper
LAMMPS output is captured by PyLammps wrapper
LAMMPS output is captured by PyLammps wrapper
LAMMPS output is captured by PyLammps wrapper
LAMMPS output is captured by PyLammps wrapper
LAMMPS output is captured by PyLammps wrapper
LAMMPS output is captured by PyLammps wrapper
LAMMPS output is captured by PyLammps wrapper
LAMMPS output is captured by PyLammps wrapper
LAMMPS output is captured by PyLammps wrapper
LAMMPS output is captured by PyLammps wrapper
LAMMPS output is captured by PyLammps wrapper
LAMMPS output is captured by PyLammps wrapper
LAMMPS output is captured by PyLammps wrapper
LAMMPS output is captured by PyLammps wrapper
LAMMPS output is captured by PyLammps wrapper
LAMMPS output is captured by PyLammps wrapper
LAMMPS output is captured by PyLammps wrapper
LAMMPS output is captured by PyLammps wrapper
LAMMPS output is captured by PyLammps wrapper
LAMMPS output is captured by PyLammps wrapper
LAMMPS output is captured by PyLammps wrapper
LAMMPS output is captured by PyLammps wrapper
LAMMPS output is captured by PyLammps wrapper
LAMMPS output is captured by PyLammps wrapper
LAMMPS output is captured by PyLammps wrapper
LAMMPS output is captured by PyLammps wrapper
LAMMPS output is captured by PyLammps wrapper
LAMMPS output is captured by PyLammps wrapper
LAMMPS output is captured by PyLammps wrapper
LAMMPS output is captured by PyLammps wrapper
LAMMPS output is captured by PyLammps wrapper
LAMMPS output is captured by PyLammps wrapper
LAMMPS output is captured by PyLammps wrapper
LAMMPS output is captured by PyLammps wrapper
LAMMPS output is captured by PyLammps wrapper
LAMMPS output is captured by PyLammps wrapper
LAMMPS output is captured by PyLammps wrapper
LAMMPS output is captured by PyLammps wrapper
LAMMPS output is captured by PyLammps wrapper
LAMMPS output is captured by PyLammps wrapper
LAMMPS output is captured by PyLammps wrapper
LAMMPS output is captured by PyLammps wrapper
LAMMPS output is captured by PyLammps wrapper
LAMMPS output is captured by PyLammps wrapper
LAMMPS output is captured by PyLammps wrapper
LAMMPS output is captured by PyLammps wrapper
LAMMPS output is captured by PyLammps wrapper
LAMMPS output is captured by PyLammps wrapper
LAMMPS output is captured by PyLammps wrapper
LAMMPS output is captured by PyLammps wrapper
LAMMPS output is captured by PyLammps wrapper
LAMMPS output is captured by PyLammps wrapper
LAMMPS output is captured by PyLammps wrapper
LAMMPS output is captured by PyLammps wrapper
LAMMPS output is captured by PyLammps wrapper
LAMMPS output is captured by PyLammps wrapper
LAMMPS output is captured by PyLammps wrapper
LAMMPS output is captured by PyLammps wrapper
LAMMPS output is captured by PyLammps wrapper
LAMMPS output is captured by PyLammps wrapper
LAMMPS output is captured by PyLammps wrapper
LAMMPS output is captured by PyLammps wrapper
LAMMPS output is captured by PyLammps wrapper
LAMMPS output is captured by PyLammps wrapper
LAMMPS output is captured by PyLammps wrapper
LAMMPS output is captured by PyLammps wrapper
LAMMPS output is captured by PyLammps wrapper
LAMMPS output is captured by PyLammps wrapper
LAMMPS output is captured by PyLammps wrapper
LAMMPS output is captured by PyLammps wrapper
LAMMPS output is captured by PyLammps wrapper
LAMMPS output is captured by PyLammps wrapper
LAMMPS output is captured by PyLammps wrapper
LAMMPS output is captured by PyLammps wrapper
LAMMPS output is captured by PyLammps wrapper
LAMMPS output is captured by PyLammps wrapper
LAMMPS output is captured by PyLammps wrapper
LAMMPS output is captured by PyLammps wrapper
LAMMPS output is captured by PyLammps wrapper
LAMMPS output is captured by PyLammps wrapper
LAMMPS output is captured by PyLammps wrapper
LAMMPS output is captured by PyLammps wrapper
LAMMPS output is captured by PyLammps wrapper
LAMMPS output is captured by PyLammps wrapper
LAMMPS output is captured by PyLammps wrapper
LAMMPS output is captured by PyLammps wrapper
LAMMPS output is captured by PyLammps wrapper
LAMMPS output is captured by PyLammps wrapper
LAMMPS output is captured by PyLammps wrapper
LAMMPS output is captured by PyLammps wrapper
LAMMPS output is captured by PyLammps wrapper
LAMMPS output is captured by PyLammps wrapper
LAMMPS output is captured by PyLammps wrapper
LAMMPS output is captured by PyLammps wrapper
LAMMPS output is captured by PyLammps wrapper
LAMMPS output is captured by PyLammps wrapper
LAMMPS output is captured by PyLammps wrapper
LAMMPS output is captured by PyLammps wrapper
LAMMPS output is captured by PyLammps wrapper
LAMMPS output is captured by PyLammps wrapper
LAMMPS output is captured by PyLammps wrapper
LAMMPS output is captured by PyLammps wrapper
LAMMPS output is captured by PyLammps wrapper
LAMMPS output is captured by PyLammps wrapper
LAMMPS output is captured by PyLammps wrapper
LAMMPS output is captured by PyLammps wrapper
LAMMPS output is captured by PyLammps wrapper
LAMMPS output is captured by PyLammps wrapper
LAMMPS output is captured by PyLammps wrapper
LAMMPS output is captured by PyLammps wrapper
LAMMPS output is captured by PyLammps wrapper
LAMMPS output is captured by PyLammps wrapper
LAMMPS output is captured by PyLammps wrapper
LAMMPS output is captured by PyLammps wrapper
LAMMPS output is captured by PyLammps wrapper
LAMMPS output is captured by PyLammps wrapper
LAMMPS output is captured by PyLammps wrapper
LAMMPS output is captured by PyLammps wrapper
LAMMPS output is captured by PyLammps wrapper
LAMMPS output is captured by PyLammps wrapper
LAMMPS output is captured by PyLammps wrapper
LAMMPS output is captured by PyLammps wrapper
LAMMPS output is captured by PyLammps wrapper
LAMMPS output is captured by PyLammps wrapper
LAMMPS output is captured by PyLammps wrapper
LAMMPS output is captured by PyLammps wrapper
LAMMPS output is captured by PyLammps wrapper
LAMMPS output is captured by PyLammps wrapper
LAMMPS output is captured by PyLammps wrapper
LAMMPS output is captured by PyLammps wrapper
LAMMPS output is captured by PyLammps wrapper
LAMMPS output is captured by PyLammps wrapper
LAMMPS output is captured by PyLammps wrapper
LAMMPS output is captured by PyLammps wrapper
LAMMPS output is captured by PyLammps wrapper
LAMMPS output is captured by PyLammps wrapper
LAMMPS output is captured by PyLammps wrapper
LAMMPS output is captured by PyLammps wrapper
LAMMPS output is captured by PyLammps wrapper
LAMMPS output is captured by PyLammps wrapper
LAMMPS output is captured by PyLammps wrapper
LAMMPS output is captured by PyLammps wrapper
LAMMPS output is captured by PyLammps wrapper
LAMMPS output is captured by PyLammps wrapper
LAMMPS output is captured by PyLammps wrapper
LAMMPS output is captured by PyLammps wrapper
LAMMPS output is captured by PyLammps wrapper
LAMMPS output is captured by PyLammps wrapper
LAMMPS output is captured by PyLammps wrapper
LAMMPS output is captured by PyLammps wrapper
LAMMPS output is captured by PyLammps wrapper
LAMMPS output is captured by PyLammps wrapper
LAMMPS output is captured by PyLammps wrapper
LAMMPS output is captured by PyLammps wrapper
LAMMPS output is captured by PyLammps wrapper
LAMMPS output is captured by PyLammps wrapper
LAMMPS output is captured by PyLammps wrapper
LAMMPS output is captured by PyLammps wrapper
LAMMPS output is captured by PyLammps wrapper
LAMMPS output is captured by PyLammps wrapper
LAMMPS output is captured by PyLammps wrapper
LAMMPS output is captured by PyLammps wrapper
LAMMPS output is captured by PyLammps wrapper
LAMMPS output is captured by PyLammps wrapper
LAMMPS output is captured by PyLammps wrapper
LAMMPS output is captured by PyLammps wrapper
LAMMPS output is captured by PyLammps wrapper
LAMMPS output is captured by PyLammps wrapper
LAMMPS output is captured by PyLammps wrapper
LAMMPS output is captured by PyLammps wrapper
LAMMPS output is captured by PyLammps wrapper
LAMMPS output is captured by PyLammps wrapper
LAMMPS output is captured by PyLammps wrapper
LAMMPS output is captured by PyLammps wrapper
LAMMPS output is captured by PyLammps wrapper
LAMMPS output is captured by PyLammps wrapper
LAMMPS output is captured by PyLammps wrapper
LAMMPS output is captured by PyLammps wrapper
LAMMPS output is captured by PyLammps wrapper
LAMMPS output is captured by PyLammps wrapper
LAMMPS output is captured by PyLammps wrapper
LAMMPS output is captured by PyLammps wrapper
LAMMPS output is captured by PyLammps wrapper
LAMMPS output is captured by PyLammps wrapper
LAMMPS output is captured by PyLammps wrapper
LAMMPS output is captured by PyLammps wrapper
LAMMPS output is captured by PyLammps wrapper
LAMMPS output is captured by PyLammps wrapper
LAMMPS output is captured by PyLammps wrapper
LAMMPS output is captured by PyLammps wrapper
LAMMPS output is captured by PyLammps wrapper
LAMMPS output is captured by PyLammps wrapper
LAMMPS output is captured by PyLammps wrapper
LAMMPS output is captured by PyLammps wrapper
LAMMPS output is captured by PyLammps wrapper
LAMMPS output is captured by PyLammps wrapper
LAMMPS output is captured by PyLammps wrapper
LAMMPS output is captured by PyLammps wrapper
LAMMPS output is captured by PyLammps wrapper
LAMMPS output is captured by PyLammps wrapper
LAMMPS output is captured by PyLammps wrapper
LAMMPS output is captured by PyLammps wrapper
LAMMPS output is captured by PyLammps wrapper
LAMMPS output is captured by PyLammps wrapper
LAMMPS output is captured by PyLammps wrapper
LAMMPS output is captured by PyLammps wrapper
LAMMPS output is captured by PyLammps wrapper
LAMMPS output is captured by PyLammps wrapper
LAMMPS output is captured by PyLammps wrapper
LAMMPS output is captured by PyLammps wrapper
LAMMPS output is captured by PyLammps wrapper
LAMMPS output is captured by PyLammps wrapper
LAMMPS output is captured by PyLammps wrapper
LAMMPS output is captured by PyLammps wrapper
LAMMPS output is captured by PyLammps wrapper
LAMMPS output is captured by PyLammps wrapper
LAMMPS output is captured by PyLammps wrapper
LAMMPS output is captured by PyLammps wrapper
LAMMPS output is captured by PyLammps wrapper
LAMMPS output is captured by PyLammps wrapper
LAMMPS output is captured by PyLammps wrapper
LAMMPS output is captured by PyLammps wrapper
LAMMPS output is captured by PyLammps wrapper
LAMMPS output is captured by PyLammps wrapper
LAMMPS output is captured by PyLammps wrapper
LAMMPS output is captured by PyLammps wrapper
LAMMPS output is captured by PyLammps wrapper
LAMMPS output is captured by PyLammps wrapper
LAMMPS output is captured by PyLammps wrapper
LAMMPS output is captured by PyLammps wrapper
LAMMPS output is captured by PyLammps wrapper
LAMMPS output is captured by PyLammps wrapper
LAMMPS output is captured by PyLammps wrapper
LAMMPS output is captured by PyLammps wrapper
LAMMPS output is captured by PyLammps wrapper
LAMMPS output is captured by PyLammps wrapper
LAMMPS output is captured by PyLammps wrapper
LAMMPS output is captured by PyLammps wrapper
LAMMPS output is captured by PyLammps wrapper
LAMMPS output is captured by PyLammps wrapper
LAMMPS output is captured by PyLammps wrapper
LAMMPS output is captured by PyLammps wrapper
LAMMPS output is captured by PyLammps wrapper
LAMMPS output is captured by PyLammps wrapper
LAMMPS output is captured by PyLammps wrapper
LAMMPS output is captured by PyLammps wrapper
LAMMPS output is captured by PyLammps wrapper
LAMMPS output is captured by PyLammps wrapper
LAMMPS output is captured by PyLammps wrapper
LAMMPS output is captured by PyLammps wrapper
LAMMPS output is captured by PyLammps wrapper
LAMMPS output is captured by PyLammps wrapper
LAMMPS output is captured by PyLammps wrapper
LAMMPS output is captured by PyLammps wrapper
LAMMPS output is captured by PyLammps wrapper
LAMMPS output is captured by PyLammps wrapper
LAMMPS output is captured by PyLammps wrapper
LAMMPS output is captured by PyLammps wrapper
LAMMPS output is captured by PyLammps wrapper
LAMMPS output is captured by PyLammps wrapper
LAMMPS output is captured by PyLammps wrapper
LAMMPS output is captured by PyLammps wrapper
LAMMPS output is captured by PyLammps wrapper
LAMMPS output is captured by PyLammps wrapper
LAMMPS output is captured by PyLammps wrapper
LAMMPS output is captured by PyLammps wrapper
LAMMPS output is captured by PyLammps wrapper
LAMMPS output is captured by PyLammps wrapper
LAMMPS output is captured by PyLammps wrapper
LAMMPS output is captured by PyLammps wrapper
LAMMPS output is captured by PyLammps wrapper
LAMMPS output is captured by PyLammps wrapper
LAMMPS output is captured by PyLammps wrapper
LAMMPS output is captured by PyLammps wrapper
LAMMPS output is captured by PyLammps wrapper
LAMMPS output is captured by PyLammps wrapper
LAMMPS output is captured by PyLammps wrapper
LAMMPS output is captured by PyLammps wrapper
LAMMPS output is captured by PyLammps wrapper
LAMMPS output is captured by PyLammps wrapper
LAMMPS output is captured by PyLammps wrapper
LAMMPS output is captured by PyLammps wrapper
LAMMPS output is captured by PyLammps wrapper
LAMMPS output is captured by PyLammps wrapper
LAMMPS output is captured by PyLammps wrapper
LAMMPS output is captured by PyLammps wrapper
LAMMPS output is captured by PyLammps wrapper
LAMMPS output is captured by PyLammps wrapper
LAMMPS output is captured by PyLammps wrapper
LAMMPS output is captured by PyLammps wrapper
LAMMPS output is captured by PyLammps wrapper
LAMMPS output is captured by PyLammps wrapper
LAMMPS output is captured by PyLammps wrapper
LAMMPS output is captured by PyLammps wrapper
LAMMPS output is captured by PyLammps wrapper
LAMMPS output is captured by PyLammps wrapper
LAMMPS output is captured by PyLammps wrapper
LAMMPS output is captured by PyLammps wrapper
LAMMPS output is captured by PyLammps wrapper
LAMMPS output is captured by PyLammps wrapper
LAMMPS output is captured by PyLammps wrapper
LAMMPS output is captured by PyLammps wrapper
LAMMPS output is captured by PyLammps wrapper
LAMMPS output is captured by PyLammps wrapper
LAMMPS output is captured by PyLammps wrapper
LAMMPS output is captured by PyLammps wrapper
LAMMPS output is captured by PyLammps wrapper
LAMMPS output is captured by PyLammps wrapper
LAMMPS output is captured by PyLammps wrapper
LAMMPS output is captured by PyLammps wrapper
LAMMPS output is captured by PyLammps wrapper
LAMMPS output is captured by PyLammps wrapper
LAMMPS output is captured by PyLammps wrapper
LAMMPS output is captured by PyLammps wrapper
LAMMPS output is captured by PyLammps wrapper
LAMMPS output is captured by PyLammps wrapper
LAMMPS output is captured by PyLammps wrapper
LAMMPS output is captured by PyLammps wrapper
LAMMPS output is captured by PyLammps wrapper
LAMMPS output is captured by PyLammps wrapper
LAMMPS output is captured by PyLammps wrapper
LAMMPS output is captured by PyLammps wrapper
LAMMPS output is captured by PyLammps wrapper
LAMMPS output is captured by PyLammps wrapper
LAMMPS output is captured by PyLammps wrapper
LAMMPS output is captured by PyLammps wrapper
LAMMPS output is captured by PyLammps wrapper
LAMMPS output is captured by PyLammps wrapper
LAMMPS output is captured by PyLammps wrapper
LAMMPS output is captured by PyLammps wrapper
LAMMPS output is captured by PyLammps wrapper
LAMMPS output is captured by PyLammps wrapper
LAMMPS output is captured by PyLammps wrapper
LAMMPS output is captured by PyLammps wrapper
LAMMPS output is captured by PyLammps wrapper
LAMMPS output is captured by PyLammps wrapper
LAMMPS output is captured by PyLammps wrapper
LAMMPS output is captured by PyLammps wrapper
LAMMPS output is captured by PyLammps wrapper
LAMMPS output is captured by PyLammps wrapper
LAMMPS output is captured by PyLammps wrapper
LAMMPS output is captured by PyLammps wrapper
LAMMPS output is captured by PyLammps wrapper
LAMMPS output is captured by PyLammps wrapper
LAMMPS output is captured by PyLammps wrapper
LAMMPS output is captured by PyLammps wrapper
LAMMPS output is captured by PyLammps wrapper
LAMMPS output is captured by PyLammps wrapper
LAMMPS output is captured by PyLammps wrapper
LAMMPS output is captured by PyLammps wrapper
LAMMPS output is captured by PyLammps wrapper
LAMMPS output is captured by PyLammps wrapper
LAMMPS output is captured by PyLammps wrapper
LAMMPS output is captured by PyLammps wrapper
LAMMPS output is captured by PyLammps wrapper
LAMMPS output is captured by PyLammps wrapper
LAMMPS output is captured by PyLammps wrapper
LAMMPS output is captured by PyLammps wrapper
LAMMPS output is captured by PyLammps wrapper
LAMMPS output is captured by PyLammps wrapper
LAMMPS output is captured by PyLammps wrapper
LAMMPS output is captured by PyLammps wrapper
LAMMPS output is captured by PyLammps wrapper
LAMMPS output is captured by PyLammps wrapper
LAMMPS output is captured by PyLammps wrapper
LAMMPS output is captured by PyLammps wrapper
LAMMPS output is captured by PyLammps wrapper
LAMMPS output is captured by PyLammps wrapper
LAMMPS output is captured by PyLammps wrapper
LAMMPS output is captured by PyLammps wrapper
LAMMPS output is captured by PyLammps wrapper
LAMMPS output is captured by PyLammps wrapper
LAMMPS output is captured by PyLammps wrapper
LAMMPS output is captured by PyLammps wrapper
LAMMPS output is captured by PyLammps wrapper
LAMMPS output is captured by PyLammps wrapper
LAMMPS output is captured by PyLammps wrapper
LAMMPS output is captured by PyLammps wrapper
LAMMPS output is captured by PyLammps wrapper
LAMMPS output is captured by PyLammps wrapper
LAMMPS output is captured by PyLammps wrapper
LAMMPS output is captured by PyLammps wrapper
LAMMPS output is captured by PyLammps wrapper
LAMMPS output is captured by PyLammps wrapper
LAMMPS output is captured by PyLammps wrapper
LAMMPS output is captured by PyLammps wrapper
LAMMPS output is captured by PyLammps wrapper
LAMMPS output is captured by PyLammps wrapper
LAMMPS output is captured by PyLammps wrapper
LAMMPS output is captured by PyLammps wrapper
LAMMPS output is captured by PyLammps wrapper
LAMMPS output is captured by PyLammps wrapper
LAMMPS output is captured by PyLammps wrapper
LAMMPS output is captured by PyLammps wrapper
LAMMPS output is captured by PyLammps wrapper
LAMMPS output is captured by PyLammps wrapper
LAMMPS output is captured by PyLammps wrapper
LAMMPS output is captured by PyLammps wrapper
LAMMPS output is captured by PyLammps wrapper
LAMMPS output is captured by PyLammps wrapper
LAMMPS output is captured by PyLammps wrapper
LAMMPS output is captured by PyLammps wrapper
LAMMPS output is captured by PyLammps wrapper
LAMMPS output is captured by PyLammps wrapper
LAMMPS output is captured by PyLammps wrapper
LAMMPS output is captured by PyLammps wrapper
LAMMPS output is captured by PyLammps wrapper
LAMMPS output is captured by PyLammps wrapper
LAMMPS output is captured by PyLammps wrapper
LAMMPS output is captured by PyLammps wrapper
LAMMPS output is captured by PyLammps wrapper
LAMMPS output is captured by PyLammps wrapper
LAMMPS output is captured by PyLammps wrapper
LAMMPS output is captured by PyLammps wrapper
LAMMPS output is captured by PyLammps wrapper
LAMMPS output is captured by PyLammps wrapper
LAMMPS output is captured by PyLammps wrapper
LAMMPS output is captured by PyLammps wrapper
LAMMPS output is captured by PyLammps wrapper
LAMMPS output is captured by PyLammps wrapper
LAMMPS output is captured by PyLammps wrapper
LAMMPS output is captured by PyLammps wrapper
LAMMPS output is captured by PyLammps wrapper
LAMMPS output is captured by PyLammps wrapper
LAMMPS output is captured by PyLammps wrapper
LAMMPS output is captured by PyLammps wrapper
LAMMPS output is captured by PyLammps wrapper
LAMMPS output is captured by PyLammps wrapper
LAMMPS output is captured by PyLammps wrapper
LAMMPS output is captured by PyLammps wrapper
LAMMPS output is captured by PyLammps wrapper
LAMMPS output is captured by PyLammps wrapper
LAMMPS output is captured by PyLammps wrapper
LAMMPS output is captured by PyLammps wrapper
LAMMPS output is captured by PyLammps wrapper
LAMMPS output is captured by PyLammps wrapper
LAMMPS output is captured by PyLammps wrapper
LAMMPS output is captured by PyLammps wrapper
LAMMPS output is captured by PyLammps wrapper
LAMMPS output is captured by PyLammps wrapper
LAMMPS output is captured by PyLammps wrapper
LAMMPS output is captured by PyLammps wrapper
LAMMPS output is captured by PyLammps wrapper
LAMMPS output is captured by PyLammps wrapper
LAMMPS output is captured by PyLammps wrapper
LAMMPS output is captured by PyLammps wrapper
LAMMPS output is captured by PyLammps wrapper
LAMMPS output is captured by PyLammps wrapper
LAMMPS output is captured by PyLammps wrapper
LAMMPS output is captured by PyLammps wrapper
LAMMPS output is captured by PyLammps wrapper
LAMMPS output is captured by PyLammps wrapper
LAMMPS output is captured by PyLammps wrapper
LAMMPS output is captured by PyLammps wrapper
LAMMPS output is captured by PyLammps wrapper
LAMMPS output is captured by PyLammps wrapper
LAMMPS output is captured by PyLammps wrapper
LAMMPS output is captured by PyLammps wrapper
LAMMPS output is captured by PyLammps wrapper
LAMMPS output is captured by PyLammps wrapper
LAMMPS output is captured by PyLammps wrapper
LAMMPS output is captured by PyLammps wrapper
LAMMPS output is captured by PyLammps wrapper
LAMMPS output is captured by PyLammps wrapper
LAMMPS output is captured by PyLammps wrapper
LAMMPS output is captured by PyLammps wrapper
LAMMPS output is captured by PyLammps wrapper
LAMMPS output is captured by PyLammps wrapper
LAMMPS output is captured by PyLammps wrapper
LAMMPS output is captured by PyLammps wrapper
LAMMPS output is captured by PyLammps wrapper
LAMMPS output is captured by PyLammps wrapper
LAMMPS output is captured by PyLammps wrapper
LAMMPS output is captured by PyLammps wrapper
LAMMPS output is captured by PyLammps wrapper
LAMMPS output is captured by PyLammps wrapper
LAMMPS output is captured by PyLammps wrapper
LAMMPS output is captured by PyLammps wrapper
LAMMPS output is captured by PyLammps wrapper
LAMMPS output is captured by PyLammps wrapper
LAMMPS output is captured by PyLammps wrapper
LAMMPS output is captured by PyLammps wrapper
LAMMPS output is captured by PyLammps wrapper
LAMMPS output is captured by PyLammps wrapper
LAMMPS output is captured by PyLammps wrapper
LAMMPS output is captured by PyLammps wrapper
LAMMPS output is captured by PyLammps wrapper
LAMMPS output is captured by PyLammps wrapper
LAMMPS output is captured by PyLammps wrapper
LAMMPS output is captured by PyLammps wrapper
LAMMPS output is captured by PyLammps wrapper
LAMMPS output is captured by PyLammps wrapper
LAMMPS output is captured by PyLammps wrapper
LAMMPS output is captured by PyLammps wrapper
LAMMPS output is captured by PyLammps wrapper
LAMMPS output is captured by PyLammps wrapper
LAMMPS output is captured by PyLammps wrapper
LAMMPS output is captured by PyLammps wrapper
LAMMPS output is captured by PyLammps wrapper
LAMMPS output is captured by PyLammps wrapper
LAMMPS output is captured by PyLammps wrapper
LAMMPS output is captured by PyLammps wrapper
LAMMPS output is captured by PyLammps wrapper
LAMMPS output is captured by PyLammps wrapper
LAMMPS output is captured by PyLammps wrapper
LAMMPS output is captured by PyLammps wrapper
LAMMPS output is captured by PyLammps wrapper
LAMMPS output is captured by PyLammps wrapper
LAMMPS output is captured by PyLammps wrapper
LAMMPS output is captured by PyLammps wrapper
LAMMPS output is captured by PyLammps wrapper
LAMMPS output is captured by PyLammps wrapper
LAMMPS output is captured by PyLammps wrapper
LAMMPS output is captured by PyLammps wrapper
LAMMPS output is captured by PyLammps wrapper
LAMMPS output is captured by PyLammps wrapper
LAMMPS output is captured by PyLammps wrapper
LAMMPS output is captured by PyLammps wrapper
LAMMPS output is captured by PyLammps wrapper
LAMMPS output is captured by PyLammps wrapper
LAMMPS output is captured by PyLammps wrapper
LAMMPS output is captured by PyLammps wrapper
LAMMPS output is captured by PyLammps wrapper
LAMMPS output is captured by PyLammps wrapper
LAMMPS output is captured by PyLammps wrapper
LAMMPS output is captured by PyLammps wrapper
LAMMPS output is captured by PyLammps wrapper
LAMMPS output is captured by PyLammps wrapper
LAMMPS output is captured by PyLammps wrapper
LAMMPS output is captured by PyLammps wrapper
LAMMPS output is captured by PyLammps wrapper
LAMMPS output is captured by PyLammps wrapper
LAMMPS output is captured by PyLammps wrapper
LAMMPS output is captured by PyLammps wrapper
LAMMPS output is captured by PyLammps wrapper
LAMMPS output is captured by PyLammps wrapper
LAMMPS output is captured by PyLammps wrapper
LAMMPS output is captured by PyLammps wrapper
LAMMPS output is captured by PyLammps wrapper
LAMMPS output is captured by PyLammps wrapper
LAMMPS output is captured by PyLammps wrapper
LAMMPS output is captured by PyLammps wrapper
LAMMPS output is captured by PyLammps wrapper
LAMMPS output is captured by PyLammps wrapper
LAMMPS output is captured by PyLammps wrapper
LAMMPS output is captured by PyLammps wrapper
LAMMPS output is captured by PyLammps wrapper
LAMMPS output is captured by PyLammps wrapper
LAMMPS output is captured by PyLammps wrapper
LAMMPS output is captured by PyLammps wrapper
LAMMPS output is captured by PyLammps wrapper
LAMMPS output is captured by PyLammps wrapper
LAMMPS output is captured by PyLammps wrapper
LAMMPS output is captured by PyLammps wrapper
LAMMPS output is captured by PyLammps wrapper
LAMMPS output is captured by PyLammps wrapper
LAMMPS output is captured by PyLammps wrapper
LAMMPS output is captured by PyLammps wrapper
LAMMPS output is captured by PyLammps wrapper
LAMMPS output is captured by PyLammps wrapper
LAMMPS output is captured by PyLammps wrapper
LAMMPS output is captured by PyLammps wrapper
LAMMPS output is captured by PyLammps wrapper
LAMMPS output is captured by PyLammps wrapper
LAMMPS output is captured by PyLammps wrapper
LAMMPS output is captured by PyLammps wrapper
LAMMPS output is captured by PyLammps wrapper
LAMMPS output is captured by PyLammps wrapper
LAMMPS output is captured by PyLammps wrapper
LAMMPS output is captured by PyLammps wrapper
LAMMPS output is captured by PyLammps wrapper
LAMMPS output is captured by PyLammps wrapper
LAMMPS output is captured by PyLammps wrapper
LAMMPS output is captured by PyLammps wrapper
LAMMPS output is captured by PyLammps wrapper
LAMMPS output is captured by PyLammps wrapper
LAMMPS output is captured by PyLammps wrapper
LAMMPS output is captured by PyLammps wrapper
LAMMPS output is captured by PyLammps wrapper
LAMMPS output is captured by PyLammps wrapper
LAMMPS output is captured by PyLammps wrapper
LAMMPS output is captured by PyLammps wrapper
LAMMPS output is captured by PyLammps wrapper
LAMMPS output is captured by PyLammps wrapper
LAMMPS output is captured by PyLammps wrapper
LAMMPS output is captured by PyLammps wrapper
LAMMPS output is captured by PyLammps wrapper
LAMMPS output is captured by PyLammps wrapper
LAMMPS output is captured by PyLammps wrapper
LAMMPS output is captured by PyLammps wrapper
LAMMPS output is captured by PyLammps wrapper
LAMMPS output is captured by PyLammps wrapper
LAMMPS output is captured by PyLammps wrapper
LAMMPS output is captured by PyLammps wrapper
LAMMPS output is captured by PyLammps wrapper
LAMMPS output is captured by PyLammps wrapper
LAMMPS output is captured by PyLammps wrapper
LAMMPS output is captured by PyLammps wrapper
LAMMPS output is captured by PyLammps wrapper
LAMMPS output is captured by PyLammps wrapper
LAMMPS output is captured by PyLammps wrapper
LAMMPS output is captured by PyLammps wrapper
LAMMPS output is captured by PyLammps wrapper
LAMMPS output is captured by PyLammps wrapper
LAMMPS output is captured by PyLammps wrapper
LAMMPS output is captured by PyLammps wrapper
LAMMPS output is captured by PyLammps wrapper
LAMMPS output is captured by PyLammps wrapper
LAMMPS output is captured by PyLammps wrapper
LAMMPS output is captured by PyLammps wrapper
LAMMPS output is captured by PyLammps wrapper
LAMMPS output is captured by PyLammps wrapper
LAMMPS output is captured by PyLammps wrapper
LAMMPS output is captured by PyLammps wrapper
LAMMPS output is captured by PyLammps wrapper
LAMMPS output is captured by PyLammps wrapper
LAMMPS output is captured by PyLammps wrapper
LAMMPS output is captured by PyLammps wrapper
LAMMPS output is captured by PyLammps wrapper
LAMMPS output is captured by PyLammps wrapper
LAMMPS output is captured by PyLammps wrapper
LAMMPS output is captured by PyLammps wrapper
LAMMPS output is captured by PyLammps wrapper
LAMMPS output is captured by PyLammps wrapper
LAMMPS output is captured by PyLammps wrapper
LAMMPS output is captured by PyLammps wrapper
LAMMPS output is captured by PyLammps wrapper
LAMMPS output is captured by PyLammps wrapper
LAMMPS output is captured by PyLammps wrapper
LAMMPS output is captured by PyLammps wrapper
LAMMPS output is captured by PyLammps wrapper
LAMMPS output is captured by PyLammps wrapper
LAMMPS output is captured by PyLammps wrapper
LAMMPS output is captured by PyLammps wrapper
LAMMPS output is captured by PyLammps wrapper
LAMMPS output is captured by PyLammps wrapper
LAMMPS output is captured by PyLammps wrapper
LAMMPS output is captured by PyLammps wrapper
LAMMPS output is captured by PyLammps wrapper
LAMMPS output is captured by PyLammps wrapper
LAMMPS output is captured by PyLammps wrapper
LAMMPS output is captured by PyLammps wrapper
LAMMPS output is captured by PyLammps wrapper
LAMMPS output is captured by PyLammps wrapper
LAMMPS output is captured by PyLammps wrapper
LAMMPS output is captured by PyLammps wrapper
LAMMPS output is captured by PyLammps wrapper
LAMMPS output is captured by PyLammps wrapper
LAMMPS output is captured by PyLammps wrapper
LAMMPS output is captured by PyLammps wrapper
LAMMPS output is captured by PyLammps wrapper
LAMMPS output is captured by PyLammps wrapper
LAMMPS output is captured by PyLammps wrapper
LAMMPS output is captured by PyLammps wrapper
LAMMPS output is captured by PyLammps wrapper
LAMMPS output is captured by PyLammps wrapper
LAMMPS output is captured by PyLammps wrapper
LAMMPS output is captured by PyLammps wrapper
LAMMPS output is captured by PyLammps wrapper
LAMMPS output is captured by PyLammps wrapper
LAMMPS output is captured by PyLammps wrapper
LAMMPS output is captured by PyLammps wrapper
LAMMPS output is captured by PyLammps wrapper
LAMMPS output is captured by PyLammps wrapper
LAMMPS output is captured by PyLammps wrapper
LAMMPS output is captured by PyLammps wrapper
LAMMPS output is captured by PyLammps wrapper
LAMMPS output is captured by PyLammps wrapper
LAMMPS output is captured by PyLammps wrapper
LAMMPS output is captured by PyLammps wrapper
LAMMPS output is captured by PyLammps wrapper
LAMMPS output is captured by PyLammps wrapper
LAMMPS output is captured by PyLammps wrapper
LAMMPS output is captured by PyLammps wrapper
LAMMPS output is captured by PyLammps wrapper
LAMMPS output is captured by PyLammps wrapper
LAMMPS output is captured by PyLammps wrapper
LAMMPS output is captured by PyLammps wrapper
LAMMPS output is captured by PyLammps wrapper
LAMMPS output is captured by PyLammps wrapper
LAMMPS output is captured by PyLammps wrapper
LAMMPS output is captured by PyLammps wrapper
LAMMPS output is captured by PyLammps wrapper
LAMMPS output is captured by PyLammps wrapper
LAMMPS output is captured by PyLammps wrapper
LAMMPS output is captured by PyLammps wrapper
LAMMPS output is captured by PyLammps wrapper
LAMMPS output is captured by PyLammps wrapper
LAMMPS output is captured by PyLammps wrapper
LAMMPS output is captured by PyLammps wrapper
LAMMPS output is captured by PyLammps wrapper
LAMMPS output is captured by PyLammps wrapper
LAMMPS output is captured by PyLammps wrapper
LAMMPS output is captured by PyLammps wrapper
LAMMPS output is captured by PyLammps wrapper
LAMMPS output is captured by PyLammps wrapper
LAMMPS output is captured by PyLammps wrapper
LAMMPS output is captured by PyLammps wrapper
LAMMPS output is captured by PyLammps wrapper
LAMMPS output is captured by PyLammps wrapper
LAMMPS output is captured by PyLammps wrapper
LAMMPS output is captured by PyLammps wrapper
LAMMPS output is captured by PyLammps wrapper
LAMMPS output is captured by PyLammps wrapper
LAMMPS output is captured by PyLammps wrapper
LAMMPS output is captured by PyLammps wrapper
LAMMPS output is captured by PyLammps wrapper
LAMMPS output is captured by PyLammps wrapper
LAMMPS output is captured by PyLammps wrapper
LAMMPS output is captured by PyLammps wrapper
LAMMPS output is captured by PyLammps wrapper
LAMMPS output is captured by PyLammps wrapper
LAMMPS output is captured by PyLammps wrapper
LAMMPS output is captured by PyLammps wrapper
LAMMPS output is captured by PyLammps wrapper
LAMMPS output is captured by PyLammps wrapper
LAMMPS output is captured by PyLammps wrapper
LAMMPS output is captured by PyLammps wrapper
LAMMPS output is captured by PyLammps wrapper
LAMMPS output is captured by PyLammps wrapper
LAMMPS output is captured by PyLammps wrapper
LAMMPS output is captured by PyLammps wrapper
LAMMPS output is captured by PyLammps wrapper
LAMMPS output is captured by PyLammps wrapper
LAMMPS output is captured by PyLammps wrapper
LAMMPS output is captured by PyLammps wrapper
LAMMPS output is captured by PyLammps wrapper
LAMMPS output is captured by PyLammps wrapper
LAMMPS output is captured by PyLammps wrapper
LAMMPS output is captured by PyLammps wrapper
LAMMPS output is captured by PyLammps wrapper
LAMMPS output is captured by PyLammps wrapper
LAMMPS output is captured by PyLammps wrapper
LAMMPS output is captured by PyLammps wrapper
LAMMPS output is captured by PyLammps wrapper
LAMMPS output is captured by PyLammps wrapper
LAMMPS output is captured by PyLammps wrapper
LAMMPS output is captured by PyLammps wrapper
LAMMPS output is captured by PyLammps wrapper
LAMMPS output is captured by PyLammps wrapper
LAMMPS output is captured by PyLammps wrapper
LAMMPS output is captured by PyLammps wrapper
LAMMPS output is captured by PyLammps wrapper
LAMMPS output is captured by PyLammps wrapper
LAMMPS output is captured by PyLammps wrapper
LAMMPS output is captured by PyLammps wrapper
LAMMPS output is captured by PyLammps wrapper
LAMMPS output is captured by PyLammps wrapper
LAMMPS output is captured by PyLammps wrapper
LAMMPS output is captured by PyLammps wrapper
LAMMPS output is captured by PyLammps wrapper
LAMMPS output is captured by PyLammps wrapper
LAMMPS output is captured by PyLammps wrapper
LAMMPS output is captured by PyLammps wrapper
LAMMPS output is captured by PyLammps wrapper
LAMMPS output is captured by PyLammps wrapper
LAMMPS output is captured by PyLammps wrapper
LAMMPS output is captured by PyLammps wrapper
LAMMPS output is captured by PyLammps wrapper
LAMMPS output is captured by PyLammps wrapper
LAMMPS output is captured by PyLammps wrapper
LAMMPS output is captured by PyLammps wrapper
LAMMPS output is captured by PyLammps wrapper
LAMMPS output is captured by PyLammps wrapper
LAMMPS output is captured by PyLammps wrapper
LAMMPS output is captured by PyLammps wrapper
LAMMPS output is captured by PyLammps wrapper
LAMMPS output is captured by PyLammps wrapper
LAMMPS output is captured by PyLammps wrapper
LAMMPS output is captured by PyLammps wrapper
LAMMPS output is captured by PyLammps wrapper
LAMMPS output is captured by PyLammps wrapper
LAMMPS output is captured by PyLammps wrapper
LAMMPS output is captured by PyLammps wrapper
LAMMPS output is captured by PyLammps wrapper
LAMMPS output is captured by PyLammps wrapper
LAMMPS output is captured by PyLammps wrapper
LAMMPS output is captured by PyLammps wrapper
LAMMPS output is captured by PyLammps wrapper
LAMMPS output is captured by PyLammps wrapper
LAMMPS output is captured by PyLammps wrapper
LAMMPS output is captured by PyLammps wrapper
LAMMPS output is captured by PyLammps wrapper
LAMMPS output is captured by PyLammps wrapper
LAMMPS output is captured by PyLammps wrapper
LAMMPS output is captured by PyLammps wrapper
LAMMPS output is captured by PyLammps wrapper
LAMMPS output is captured by PyLammps wrapper
LAMMPS output is captured by PyLammps wrapper
LAMMPS output is captured by PyLammps wrapper
LAMMPS output is captured by PyLammps wrapper
LAMMPS output is captured by PyLammps wrapper
LAMMPS output is captured by PyLammps wrapper
LAMMPS output is captured by PyLammps wrapper
LAMMPS output is captured by PyLammps wrapper
LAMMPS output is captured by PyLammps wrapper
LAMMPS output is captured by PyLammps wrapper
LAMMPS output is captured by PyLammps wrapper
LAMMPS output is captured by PyLammps wrapper
LAMMPS output is captured by PyLammps wrapper
LAMMPS output is captured by PyLammps wrapper
LAMMPS output is captured by PyLammps wrapper
LAMMPS output is captured by PyLammps wrapper
LAMMPS output is captured by PyLammps wrapper
LAMMPS output is captured by PyLammps wrapper
LAMMPS output is captured by PyLammps wrapper
LAMMPS output is captured by PyLammps wrapper
LAMMPS output is captured by PyLammps wrapper
LAMMPS output is captured by PyLammps wrapper
LAMMPS output is captured by PyLammps wrapper
LAMMPS output is captured by PyLammps wrapper
LAMMPS output is captured by PyLammps wrapper
LAMMPS output is captured by PyLammps wrapper
LAMMPS output is captured by PyLammps wrapper
LAMMPS output is captured by PyLammps wrapper
LAMMPS output is captured by PyLammps wrapper
LAMMPS output is captured by PyLammps wrapper
LAMMPS output is captured by PyLammps wrapper
LAMMPS output is captured by PyLammps wrapper
LAMMPS output is captured by PyLammps wrapper
LAMMPS output is captured by PyLammps wrapper
LAMMPS output is captured by PyLammps wrapper
LAMMPS output is captured by PyLammps wrapper
LAMMPS output is captured by PyLammps wrapper
LAMMPS output is captured by PyLammps wrapper
LAMMPS output is captured by PyLammps wrapper
LAMMPS output is captured by PyLammps wrapper
LAMMPS output is captured by PyLammps wrapper
LAMMPS output is captured by PyLammps wrapper
LAMMPS output is captured by PyLammps wrapper
LAMMPS output is captured by PyLammps wrapper
LAMMPS output is captured by PyLammps wrapper
LAMMPS output is captured by PyLammps wrapper
LAMMPS output is captured by PyLammps wrapper
LAMMPS output is captured by PyLammps wrapper
LAMMPS output is captured by PyLammps wrapper
LAMMPS output is captured by PyLammps wrapper
LAMMPS output is captured by PyLammps wrapper
LAMMPS output is captured by PyLammps wrapper
LAMMPS output is captured by PyLammps wrapper
LAMMPS output is captured by PyLammps wrapper
LAMMPS output is captured by PyLammps wrapper
LAMMPS output is captured by PyLammps wrapper
LAMMPS output is captured by PyLammps wrapper
LAMMPS output is captured by PyLammps wrapper
LAMMPS output is captured by PyLammps wrapper
LAMMPS output is captured by PyLammps wrapper
LAMMPS output is captured by PyLammps wrapper
LAMMPS output is captured by PyLammps wrapper
LAMMPS output is captured by PyLammps wrapper
LAMMPS output is captured by PyLammps wrapper
LAMMPS output is captured by PyLammps wrapper
LAMMPS output is captured by PyLammps wrapper
LAMMPS output is captured by PyLammps wrapper
LAMMPS output is captured by PyLammps wrapper
LAMMPS output is captured by PyLammps wrapper
LAMMPS output is captured by PyLammps wrapper
LAMMPS output is captured by PyLammps wrapper
LAMMPS output is captured by PyLammps wrapper
LAMMPS output is captured by PyLammps wrapper
LAMMPS output is captured by PyLammps wrapper
LAMMPS output is captured by PyLammps wrapper
LAMMPS output is captured by PyLammps wrapper
LAMMPS output is captured by PyLammps wrapper
LAMMPS output is captured by PyLammps wrapper
LAMMPS output is captured by PyLammps wrapper
LAMMPS output is captured by PyLammps wrapper
LAMMPS output is captured by PyLammps wrapper
LAMMPS output is captured by PyLammps wrapper
LAMMPS output is captured by PyLammps wrapper
LAMMPS output is captured by PyLammps wrapper
LAMMPS output is captured by PyLammps wrapper
LAMMPS output is captured by PyLammps wrapper
LAMMPS output is captured by PyLammps wrapper
LAMMPS output is captured by PyLammps wrapper
LAMMPS output is captured by PyLammps wrapper
LAMMPS output is captured by PyLammps wrapper
LAMMPS output is captured by PyLammps wrapper
LAMMPS output is captured by PyLammps wrapper
LAMMPS output is captured by PyLammps wrapper
LAMMPS output is captured by PyLammps wrapper
LAMMPS output is captured by PyLammps wrapper
LAMMPS output is captured by PyLammps wrapper
LAMMPS output is captured by PyLammps wrapper
LAMMPS output is captured by PyLammps wrapper
LAMMPS output is captured by PyLammps wrapper
LAMMPS output is captured by PyLammps wrapper
LAMMPS output is captured by PyLammps wrapper
LAMMPS output is captured by PyLammps wrapper
LAMMPS output is captured by PyLammps wrapper
LAMMPS output is captured by PyLammps wrapper
LAMMPS output is captured by PyLammps wrapper
LAMMPS output is captured by PyLammps wrapper
LAMMPS output is captured by PyLammps wrapper
LAMMPS output is captured by PyLammps wrapper
LAMMPS output is captured by PyLammps wrapper
LAMMPS output is captured by PyLammps wrapper
LAMMPS output is captured by PyLammps wrapper
LAMMPS output is captured by PyLammps wrapper
LAMMPS output is captured by PyLammps wrapper
LAMMPS output is captured by PyLammps wrapper
LAMMPS output is captured by PyLammps wrapper
LAMMPS output is captured by PyLammps wrapper
LAMMPS output is captured by PyLammps wrapper
LAMMPS output is captured by PyLammps wrapper
LAMMPS output is captured by PyLammps wrapper
LAMMPS output is captured by PyLammps wrapper
LAMMPS output is captured by PyLammps wrapper
LAMMPS output is captured by PyLammps wrapper
LAMMPS output is captured by PyLammps wrapper
LAMMPS output is captured by PyLammps wrapper
LAMMPS output is captured by PyLammps wrapper
LAMMPS output is captured by PyLammps wrapper
LAMMPS output is captured by PyLammps wrapper
LAMMPS output is captured by PyLammps wrapper
LAMMPS output is captured by PyLammps wrapper
LAMMPS output is captured by PyLammps wrapper
LAMMPS output is captured by PyLammps wrapper
LAMMPS output is captured by PyLammps wrapper
LAMMPS output is captured by PyLammps wrapper
LAMMPS output is captured by PyLammps wrapper
LAMMPS output is captured by PyLammps wrapper
LAMMPS output is captured by PyLammps wrapper
LAMMPS output is captured by PyLammps wrapper
LAMMPS output is captured by PyLammps wrapper
LAMMPS output is captured by PyLammps wrapper
LAMMPS output is captured by PyLammps wrapper
LAMMPS output is captured by PyLammps wrapper
LAMMPS output is captured by PyLammps wrapper
LAMMPS output is captured by PyLammps wrapper
LAMMPS output is captured by PyLammps wrapper
LAMMPS output is captured by PyLammps wrapper
LAMMPS output is captured by PyLammps wrapper
LAMMPS output is captured by PyLammps wrapper
LAMMPS output is captured by PyLammps wrapper
LAMMPS output is captured by PyLammps wrapper
LAMMPS output is captured by PyLammps wrapper
LAMMPS output is captured by PyLammps wrapper
LAMMPS output is captured by PyLammps wrapper
LAMMPS output is captured by PyLammps wrapper
LAMMPS output is captured by PyLammps wrapper
LAMMPS output is captured by PyLammps wrapper
LAMMPS output is captured by PyLammps wrapper
LAMMPS output is captured by PyLammps wrapper
LAMMPS output is captured by PyLammps wrapper
LAMMPS output is captured by PyLammps wrapper
LAMMPS output is captured by PyLammps wrapper
LAMMPS output is captured by PyLammps wrapper
LAMMPS output is captured by PyLammps wrapper
LAMMPS output is captured by PyLammps wrapper
LAMMPS output is captured by PyLammps wrapper
LAMMPS output is captured by PyLammps wrapper
LAMMPS output is captured by PyLammps wrapper
LAMMPS output is captured by PyLammps wrapper
LAMMPS output is captured by PyLammps wrapper
LAMMPS output is captured by PyLammps wrapper
LAMMPS output is captured by PyLammps wrapper
LAMMPS output is captured by PyLammps wrapper
LAMMPS output is captured by PyLammps wrapper
LAMMPS output is captured by PyLammps wrapper
LAMMPS output is captured by PyLammps wrapper
LAMMPS output is captured by PyLammps wrapper
LAMMPS output is captured by PyLammps wrapper
LAMMPS output is captured by PyLammps wrapper
LAMMPS output is captured by PyLammps wrapper
LAMMPS output is captured by PyLammps wrapper
LAMMPS output is captured by PyLammps wrapper
LAMMPS output is captured by PyLammps wrapper
LAMMPS output is captured by PyLammps wrapper
LAMMPS output is captured by PyLammps wrapper
LAMMPS output is captured by PyLammps wrapper
LAMMPS output is captured by PyLammps wrapper
LAMMPS output is captured by PyLammps wrapper
LAMMPS output is captured by PyLammps wrapper
LAMMPS output is captured by PyLammps wrapper
LAMMPS output is captured by PyLammps wrapper
LAMMPS output is captured by PyLammps wrapper
LAMMPS output is captured by PyLammps wrapper
LAMMPS output is captured by PyLammps wrapper
LAMMPS output is captured by PyLammps wrapper
LAMMPS output is captured by PyLammps wrapper
LAMMPS output is captured by PyLammps wrapper
LAMMPS output is captured by PyLammps wrapper
LAMMPS output is captured by PyLammps wrapper
LAMMPS output is captured by PyLammps wrapper
LAMMPS output is captured by PyLammps wrapper
LAMMPS output is captured by PyLammps wrapper
LAMMPS output is captured by PyLammps wrapper
LAMMPS output is captured by PyLammps wrapper
LAMMPS output is captured by PyLammps wrapper
LAMMPS output is captured by PyLammps wrapper
LAMMPS output is captured by PyLammps wrapper
LAMMPS output is captured by PyLammps wrapper
LAMMPS output is captured by PyLammps wrapper
LAMMPS output is captured by PyLammps wrapper
LAMMPS output is captured by PyLammps wrapper
LAMMPS output is captured by PyLammps wrapper
LAMMPS output is captured by PyLammps wrapper
LAMMPS output is captured by PyLammps wrapper
LAMMPS output is captured by PyLammps wrapper
LAMMPS output is captured by PyLammps wrapper
LAMMPS output is captured by PyLammps wrapper
LAMMPS output is captured by PyLammps wrapper
LAMMPS output is captured by PyLammps wrapper
LAMMPS output is captured by PyLammps wrapper
LAMMPS output is captured by PyLammps wrapper
LAMMPS output is captured by PyLammps wrapper
LAMMPS output is captured by PyLammps wrapper
LAMMPS output is captured by PyLammps wrapper
LAMMPS output is captured by PyLammps wrapper
LAMMPS output is captured by PyLammps wrapper
LAMMPS output is captured by PyLammps wrapper
LAMMPS output is captured by PyLammps wrapper
LAMMPS output is captured by PyLammps wrapper
LAMMPS output is captured by PyLammps wrapper
LAMMPS output is captured by PyLammps wrapper
LAMMPS output is captured by PyLammps wrapper
LAMMPS output is captured by PyLammps wrapper
LAMMPS output is captured by PyLammps wrapper
LAMMPS output is captured by PyLammps wrapper
LAMMPS output is captured by PyLammps wrapper
LAMMPS output is captured by PyLammps wrapper
LAMMPS output is captured by PyLammps wrapper
LAMMPS output is captured by PyLammps wrapper
LAMMPS output is captured by PyLammps wrapper
LAMMPS output is captured by PyLammps wrapper
LAMMPS output is captured by PyLammps wrapper
LAMMPS output is captured by PyLammps wrapper
LAMMPS output is captured by PyLammps wrapper
LAMMPS output is captured by PyLammps wrapper
LAMMPS output is captured by PyLammps wrapper
LAMMPS output is captured by PyLammps wrapper
LAMMPS output is captured by PyLammps wrapper
LAMMPS output is captured by PyLammps wrapper
LAMMPS output is captured by PyLammps wrapper
LAMMPS output is captured by PyLammps wrapper
LAMMPS output is captured by PyLammps wrapper
LAMMPS output is captured by PyLammps wrapper
LAMMPS output is captured by PyLammps wrapper
LAMMPS output is captured by PyLammps wrapper
LAMMPS output is captured by PyLammps wrapper
LAMMPS output is captured by PyLammps wrapper
LAMMPS output is captured by PyLammps wrapper
LAMMPS output is captured by PyLammps wrapper
LAMMPS output is captured by PyLammps wrapper
LAMMPS output is captured by PyLammps wrapper
LAMMPS output is captured by PyLammps wrapper
LAMMPS output is captured by PyLammps wrapper
LAMMPS output is captured by PyLammps wrapper
LAMMPS output is captured by PyLammps wrapper
LAMMPS output is captured by PyLammps wrapper
LAMMPS output is captured by PyLammps wrapper
LAMMPS output is captured by PyLammps wrapper
LAMMPS output is captured by PyLammps wrapper
LAMMPS output is captured by PyLammps wrapper
LAMMPS output is captured by PyLammps wrapper
LAMMPS output is captured by PyLammps wrapper
LAMMPS output is captured by PyLammps wrapper
LAMMPS output is captured by PyLammps wrapper
LAMMPS output is captured by PyLammps wrapper
LAMMPS output is captured by PyLammps wrapper
LAMMPS output is captured by PyLammps wrapper
LAMMPS output is captured by PyLammps wrapper
LAMMPS output is captured by PyLammps wrapper
LAMMPS output is captured by PyLammps wrapper
LAMMPS output is captured by PyLammps wrapper
LAMMPS output is captured by PyLammps wrapper
LAMMPS output is captured by PyLammps wrapper
LAMMPS output is captured by PyLammps wrapper
LAMMPS output is captured by PyLammps wrapper
LAMMPS output is captured by PyLammps wrapper
LAMMPS output is captured by PyLammps wrapper
LAMMPS output is captured by PyLammps wrapper
LAMMPS output is captured by PyLammps wrapper
LAMMPS output is captured by PyLammps wrapper
LAMMPS output is captured by PyLammps wrapper
LAMMPS output is captured by PyLammps wrapper
LAMMPS output is captured by PyLammps wrapper
LAMMPS output is captured by PyLammps wrapper
LAMMPS output is captured by PyLammps wrapper
LAMMPS output is captured by PyLammps wrapper
LAMMPS output is captured by PyLammps wrapper
LAMMPS output is captured by PyLammps wrapper
LAMMPS output is captured by PyLammps wrapper
LAMMPS output is captured by PyLammps wrapper
LAMMPS output is captured by PyLammps wrapper
LAMMPS output is captured by PyLammps wrapper
LAMMPS output is captured by PyLammps wrapper
LAMMPS output is captured by PyLammps wrapper
LAMMPS output is captured by PyLammps wrapper
LAMMPS output is captured by PyLammps wrapper
LAMMPS output is captured by PyLammps wrapper
LAMMPS output is captured by PyLammps wrapper
LAMMPS output is captured by PyLammps wrapper
LAMMPS output is captured by PyLammps wrapper
LAMMPS output is captured by PyLammps wrapper
LAMMPS output is captured by PyLammps wrapper
LAMMPS output is captured by PyLammps wrapper
LAMMPS output is captured by PyLammps wrapper
LAMMPS output is captured by PyLammps wrapper
LAMMPS output is captured by PyLammps wrapper
LAMMPS output is captured by PyLammps wrapper
LAMMPS output is captured by PyLammps wrapper
LAMMPS output is captured by PyLammps wrapper
LAMMPS output is captured by PyLammps wrapper
LAMMPS output is captured by PyLammps wrapper
LAMMPS output is captured by PyLammps wrapper
LAMMPS output is captured by PyLammps wrapper
LAMMPS output is captured by PyLammps wrapper
LAMMPS output is captured by PyLammps wrapper
LAMMPS output is captured by PyLammps wrapper
LAMMPS output is captured by PyLammps wrapper
LAMMPS output is captured by PyLammps wrapper
LAMMPS output is captured by PyLammps wrapper
LAMMPS output is captured by PyLammps wrapper
LAMMPS output is captured by PyLammps wrapper
LAMMPS output is captured by PyLammps wrapper
LAMMPS output is captured by PyLammps wrapper
LAMMPS output is captured by PyLammps wrapper
LAMMPS output is captured by PyLammps wrapper
LAMMPS output is captured by PyLammps wrapper
LAMMPS output is captured by PyLammps wrapper
LAMMPS output is captured by PyLammps wrapper
LAMMPS output is captured by PyLammps wrapper
LAMMPS output is captured by PyLammps wrapper
LAMMPS output is captured by PyLammps wrapper
LAMMPS output is captured by PyLammps wrapper
LAMMPS output is captured by PyLammps wrapper
LAMMPS output is captured by PyLammps wrapper
LAMMPS output is captured by PyLammps wrapper
LAMMPS output is captured by PyLammps wrapper
LAMMPS output is captured by PyLammps wrapper
LAMMPS output is captured by PyLammps wrapper
LAMMPS output is captured by PyLammps wrapper
LAMMPS output is captured by PyLammps wrapper
LAMMPS output is captured by PyLammps wrapper
LAMMPS output is captured by PyLammps wrapper
LAMMPS output is captured by PyLammps wrapper
LAMMPS output is captured by PyLammps wrapper
LAMMPS output is captured by PyLammps wrapper
LAMMPS output is captured by PyLammps wrapper
LAMMPS output is captured by PyLammps wrapper
LAMMPS output is captured by PyLammps wrapper
LAMMPS output is captured by PyLammps wrapper
LAMMPS output is captured by PyLammps wrapper
LAMMPS output is captured by PyLammps wrapper
LAMMPS output is captured by PyLammps wrapper
LAMMPS output is captured by PyLammps wrapper
LAMMPS output is captured by PyLammps wrapper
LAMMPS output is captured by PyLammps wrapper
LAMMPS output is captured by PyLammps wrapper
LAMMPS output is captured by PyLammps wrapper
LAMMPS output is captured by PyLammps wrapper
LAMMPS output is captured by PyLammps wrapper
LAMMPS output is captured by PyLammps wrapper
LAMMPS output is captured by PyLammps wrapper
LAMMPS output is captured by PyLammps wrapper
LAMMPS output is captured by PyLammps wrapper
LAMMPS output is captured by PyLammps wrapper
LAMMPS output is captured by PyLammps wrapper
LAMMPS output is captured by PyLammps wrapper
LAMMPS output is captured by PyLammps wrapper
LAMMPS output is captured by PyLammps wrapper
LAMMPS output is captured by PyLammps wrapper
LAMMPS output is captured by PyLammps wrapper
LAMMPS output is captured by PyLammps wrapper
LAMMPS output is captured by PyLammps wrapper
LAMMPS output is captured by PyLammps wrapper
LAMMPS output is captured by PyLammps wrapper
LAMMPS output is captured by PyLammps wrapper
LAMMPS output is captured by PyLammps wrapper
LAMMPS output is captured by PyLammps wrapper
LAMMPS output is captured by PyLammps wrapper
LAMMPS output is captured by PyLammps wrapper
LAMMPS output is captured by PyLammps wrapper
LAMMPS output is captured by PyLammps wrapper
LAMMPS output is captured by PyLammps wrapper
LAMMPS output is captured by PyLammps wrapper
LAMMPS output is captured by PyLammps wrapper
LAMMPS output is captured by PyLammps wrapper
LAMMPS output is captured by PyLammps wrapper
LAMMPS output is captured by PyLammps wrapper
LAMMPS output is captured by PyLammps wrapper
LAMMPS output is captured by PyLammps wrapper
LAMMPS output is captured by PyLammps wrapper
LAMMPS output is captured by PyLammps wrapper
LAMMPS output is captured by PyLammps wrapper
LAMMPS output is captured by PyLammps wrapper
LAMMPS output is captured by PyLammps wrapper
LAMMPS output is captured by PyLammps wrapper
LAMMPS output is captured by PyLammps wrapper
LAMMPS output is captured by PyLammps wrapper
LAMMPS output is captured by PyLammps wrapper
LAMMPS output is captured by PyLammps wrapper
LAMMPS output is captured by PyLammps wrapper
LAMMPS output is captured by PyLammps wrapper
LAMMPS output is captured by PyLammps wrapper
LAMMPS output is captured by PyLammps wrapper
LAMMPS output is captured by PyLammps wrapper
LAMMPS output is captured by PyLammps wrapper
LAMMPS output is captured by PyLammps wrapper
LAMMPS output is captured by PyLammps wrapper
LAMMPS output is captured by PyLammps wrapper
LAMMPS output is captured by PyLammps wrapper
LAMMPS output is captured by PyLammps wrapper
LAMMPS output is captured by PyLammps wrapper
LAMMPS output is captured by PyLammps wrapper
LAMMPS output is captured by PyLammps wrapper
LAMMPS output is captured by PyLammps wrapper
LAMMPS output is captured by PyLammps wrapper
LAMMPS output is captured by PyLammps wrapper
LAMMPS output is captured by PyLammps wrapper
LAMMPS output is captured by PyLammps wrapper
LAMMPS output is captured by PyLammps wrapper
LAMMPS output is captured by PyLammps wrapper
LAMMPS output is captured by PyLammps wrapper
LAMMPS output is captured by PyLammps wrapper
LAMMPS output is captured by PyLammps wrapper
LAMMPS output is captured by PyLammps wrapper
LAMMPS output is captured by PyLammps wrapper
LAMMPS output is captured by PyLammps wrapper
LAMMPS output is captured by PyLammps wrapper
LAMMPS output is captured by PyLammps wrapper
LAMMPS output is captured by PyLammps wrapper
LAMMPS output is captured by PyLammps wrapper
LAMMPS output is captured by PyLammps wrapper
LAMMPS output is captured by PyLammps wrapper
LAMMPS output is captured by PyLammps wrapper
LAMMPS output is captured by PyLammps wrapper
LAMMPS output is captured by PyLammps wrapper
LAMMPS output is captured by PyLammps wrapper
LAMMPS output is captured by PyLammps wrapper
LAMMPS output is captured by PyLammps wrapper
LAMMPS output is captured by PyLammps wrapper
LAMMPS output is captured by PyLammps wrapper
LAMMPS output is captured by PyLammps wrapper
LAMMPS output is captured by PyLammps wrapper
LAMMPS output is captured by PyLammps wrapper
LAMMPS output is captured by PyLammps wrapper
LAMMPS output is captured by PyLammps wrapper
LAMMPS output is captured by PyLammps wrapper
LAMMPS output is captured by PyLammps wrapper
LAMMPS output is captured by PyLammps wrapper
LAMMPS output is captured by PyLammps wrapper
LAMMPS output is captured by PyLammps wrapper
LAMMPS output is captured by PyLammps wrapper
LAMMPS output is captured by PyLammps wrapper
LAMMPS output is captured by PyLammps wrapper
LAMMPS output is captured by PyLammps wrapper
LAMMPS output is captured by PyLammps wrapper
LAMMPS output is captured by PyLammps wrapper
LAMMPS output is captured by PyLammps wrapper
LAMMPS output is captured by PyLammps wrapper
LAMMPS output is captured by PyLammps wrapper
LAMMPS output is captured by PyLammps wrapper
LAMMPS output is captured by PyLammps wrapper
LAMMPS output is captured by PyLammps wrapper
LAMMPS output is captured by PyLammps wrapper
LAMMPS output is captured by PyLammps wrapper
LAMMPS output is captured by PyLammps wrapper
LAMMPS output is captured by PyLammps wrapper
LAMMPS output is captured by PyLammps wrapper
LAMMPS output is captured by PyLammps wrapper
LAMMPS output is captured by PyLammps wrapper
LAMMPS output is captured by PyLammps wrapper
LAMMPS output is captured by PyLammps wrapper
LAMMPS output is captured by PyLammps wrapper
LAMMPS output is captured by PyLammps wrapper
LAMMPS output is captured by PyLammps wrapper
LAMMPS output is captured by PyLammps wrapper
LAMMPS output is captured by PyLammps wrapper
LAMMPS output is captured by PyLammps wrapper
LAMMPS output is captured by PyLammps wrapper
LAMMPS output is captured by PyLammps wrapper
LAMMPS output is captured by PyLammps wrapper
LAMMPS output is captured by PyLammps wrapper
LAMMPS output is captured by PyLammps wrapper
LAMMPS output is captured by PyLammps wrapper
LAMMPS output is captured by PyLammps wrapper
LAMMPS output is captured by PyLammps wrapper
LAMMPS output is captured by PyLammps wrapper
LAMMPS output is captured by PyLammps wrapper
LAMMPS output is captured by PyLammps wrapper
[...]
LAMMPS output is captured by PyLammps wrapper
LAMMPS output is captured by PyLammps wrapper
LAMMPS output is captured by PyLammps wrapper
LAMMPS output is captured by PyLammps wrapper
LAMMPS output is captured by PyLammps wrapper
LAMMPS output is captured by PyLammps wrapper
LAMMPS output is captured by PyLammps wrapper
LAMMPS output is captured by PyLammps wrapper
LAMMPS output is captured by PyLammps wrapper
LAMMPS output is captured by PyLammps wrapper
LAMMPS output is captured by PyLammps wrapper
LAMMPS output is captured by PyLammps wrapper
LAMMPS output is captured by PyLammps wrapper
LAMMPS output is captured by PyLammps wrapper
LAMMPS output is captured by PyLammps wrapper
LAMMPS output is captured by PyLammps wrapper
LAMMPS output is captured by PyLammps wrapper
LAMMPS output is captured by PyLammps wrapper
LAMMPS output is captured by PyLammps wrapper
LAMMPS output is captured by PyLammps wrapper
LAMMPS output is captured by PyLammps wrapper
LAMMPS output is captured by PyLammps wrapper
LAMMPS output is captured by PyLammps wrapper
LAMMPS output is captured by PyLammps wrapper
LAMMPS output is captured by PyLammps wrapper
LAMMPS output is captured by PyLammps wrapper
LAMMPS output is captured by PyLammps wrapper
LAMMPS output is captured by PyLammps wrapper
LAMMPS output is captured by PyLammps wrapper
LAMMPS output is captured by PyLammps wrapper
LAMMPS output is captured by PyLammps wrapper
LAMMPS output is captured by PyLammps wrapper
LAMMPS output is captured by PyLammps wrapper
LAMMPS output is captured by PyLammps wrapper
LAMMPS output is captured by PyLammps wrapper
LAMMPS output is captured by PyLammps wrapper
LAMMPS output is captured by PyLammps wrapper
LAMMPS output is captured by PyLammps wrapper
LAMMPS output is captured by PyLammps wrapper
LAMMPS output is captured by PyLammps wrapper
LAMMPS output is captured by PyLammps wrapper
LAMMPS output is captured by PyLammps wrapper
LAMMPS output is captured by PyLammps wrapper
LAMMPS output is captured by PyLammps wrapper
LAMMPS output is captured by PyLammps wrapper
LAMMPS output is captured by PyLammps wrapper
LAMMPS output is captured by PyLammps wrapper
LAMMPS output is captured by PyLammps wrapper
LAMMPS output is captured by PyLammps wrapper
LAMMPS output is captured by PyLammps wrapper
LAMMPS output is captured by PyLammps wrapper
LAMMPS output is captured by PyLammps wrapper
LAMMPS output is captured by PyLammps wrapper
LAMMPS output is captured by PyLammps wrapper
LAMMPS output is captured by PyLammps wrapper
LAMMPS output is captured by PyLammps wrapper
LAMMPS output is captured by PyLammps wrapper
LAMMPS output is captured by PyLammps wrapper
LAMMPS output is captured by PyLammps wrapper
LAMMPS output is captured by PyLammps wrapper
LAMMPS output is captured by PyLammps wrapper
LAMMPS output is captured by PyLammps wrapper
LAMMPS output is captured by PyLammps wrapper
LAMMPS output is captured by PyLammps wrapper
LAMMPS output is captured by PyLammps wrapper
LAMMPS output is captured by PyLammps wrapper
LAMMPS output is captured by PyLammps wrapper
LAMMPS output is captured by PyLammps wrapper
LAMMPS output is captured by PyLammps wrapper
LAMMPS output is captured by PyLammps wrapper
LAMMPS output is captured by PyLammps wrapper
LAMMPS output is captured by PyLammps wrapper
LAMMPS output is captured by PyLammps wrapper
LAMMPS output is captured by PyLammps wrapper
LAMMPS output is captured by PyLammps wrapper
LAMMPS output is captured by PyLammps wrapper
LAMMPS output is captured by PyLammps wrapper
LAMMPS output is captured by PyLammps wrapper
LAMMPS output is captured by PyLammps wrapper
LAMMPS output is captured by PyLammps wrapper
LAMMPS output is captured by PyLammps wrapper
LAMMPS output is captured by PyLammps wrapper
LAMMPS output is captured by PyLammps wrapper
LAMMPS output is captured by PyLammps wrapper
LAMMPS output is captured by PyLammps wrapper
LAMMPS output is captured by PyLammps wrapper
LAMMPS output is captured by PyLammps wrapper
LAMMPS output is captured by PyLammps wrapper
LAMMPS output is captured by PyLammps wrapper
LAMMPS output is captured by PyLammps wrapper
LAMMPS output is captured by PyLammps wrapper
LAMMPS output is captured by PyLammps wrapper
LAMMPS output is captured by PyLammps wrapper
LAMMPS output is captured by PyLammps wrapper
LAMMPS output is captured by PyLammps wrapper
LAMMPS output is captured by PyLammps wrapper
LAMMPS output is captured by PyLammps wrapper
LAMMPS output is captured by PyLammps wrapper
LAMMPS output is captured by PyLammps wrapper
LAMMPS output is captured by PyLammps wrapper
LAMMPS output is captured by PyLammps wrapper
LAMMPS output is captured by PyLammps wrapper
LAMMPS output is captured by PyLammps wrapper
LAMMPS output is captured by PyLammps wrapper
LAMMPS output is captured by PyLammps wrapper
LAMMPS output is captured by PyLammps wrapper
LAMMPS output is captured by PyLammps wrapper
LAMMPS output is captured by PyLammps wrapper
LAMMPS output is captured by PyLammps wrapper
LAMMPS output is captured by PyLammps wrapper
LAMMPS output is captured by PyLammps wrapper
LAMMPS output is captured by PyLammps wrapper
LAMMPS output is captured by PyLammps wrapper
LAMMPS output is captured by PyLammps wrapper
LAMMPS output is captured by PyLammps wrapper
LAMMPS output is captured by PyLammps wrapper
LAMMPS output is captured by PyLammps wrapper
LAMMPS output is captured by PyLammps wrapper
LAMMPS output is captured by PyLammps wrapper
LAMMPS output is captured by PyLammps wrapper
LAMMPS output is captured by PyLammps wrapper
LAMMPS output is captured by PyLammps wrapper
LAMMPS output is captured by PyLammps wrapper
LAMMPS output is captured by PyLammps wrapper
LAMMPS output is captured by PyLammps wrapper
LAMMPS output is captured by PyLammps wrapper
LAMMPS output is captured by PyLammps wrapper
LAMMPS output is captured by PyLammps wrapper
LAMMPS output is captured by PyLammps wrapper
LAMMPS output is captured by PyLammps wrapper
LAMMPS output is captured by PyLammps wrapper
LAMMPS output is captured by PyLammps wrapper
LAMMPS output is captured by PyLammps wrapper
LAMMPS output is captured by PyLammps wrapper
LAMMPS output is captured by PyLammps wrapper
LAMMPS output is captured by PyLammps wrapper
LAMMPS output is captured by PyLammps wrapper
LAMMPS output is captured by PyLammps wrapper
LAMMPS output is captured by PyLammps wrapper
LAMMPS output is captured by PyLammps wrapper
LAMMPS output is captured by PyLammps wrapper
LAMMPS output is captured by PyLammps wrapper
LAMMPS output is captured by PyLammps wrapper
LAMMPS output is captured by PyLammps wrapper
LAMMPS output is captured by PyLammps wrapper
LAMMPS output is captured by PyLammps wrapper
LAMMPS output is captured by PyLammps wrapper
LAMMPS output is captured by PyLammps wrapper
LAMMPS output is captured by PyLammps wrapper
LAMMPS output is captured by PyLammps wrapper
LAMMPS output is captured by PyLammps wrapper
LAMMPS output is captured by PyLammps wrapper
LAMMPS output is captured by PyLammps wrapper
LAMMPS output is captured by PyLammps wrapper
LAMMPS output is captured by PyLammps wrapper
LAMMPS output is captured by PyLammps wrapper
LAMMPS output is captured by PyLammps wrapper
LAMMPS output is captured by PyLammps wrapper
LAMMPS output is captured by PyLammps wrapper
LAMMPS output is captured by PyLammps wrapper
LAMMPS output is captured by PyLammps wrapper
LAMMPS output is captured by PyLammps wrapper
LAMMPS output is captured by PyLammps wrapper
LAMMPS output is captured by PyLammps wrapper
LAMMPS output is captured by PyLammps wrapper
LAMMPS output is captured by PyLammps wrapper
LAMMPS output is captured by PyLammps wrapper
LAMMPS output is captured by PyLammps wrapper
LAMMPS output is captured by PyLammps wrapper
LAMMPS output is captured by PyLammps wrapper
LAMMPS output is captured by PyLammps wrapper
LAMMPS output is captured by PyLammps wrapper
LAMMPS output is captured by PyLammps wrapper
LAMMPS output is captured by PyLammps wrapper
LAMMPS output is captured by PyLammps wrapper
LAMMPS output is captured by PyLammps wrapper
LAMMPS output is captured by PyLammps wrapper
LAMMPS output is captured by PyLammps wrapper
LAMMPS output is captured by PyLammps wrapper
LAMMPS output is captured by PyLammps wrapper
LAMMPS output is captured by PyLammps wrapper
LAMMPS output is captured by PyLammps wrapper
LAMMPS output is captured by PyLammps wrapper
LAMMPS output is captured by PyLammps wrapper
LAMMPS output is captured by PyLammps wrapper
LAMMPS output is captured by PyLammps wrapper
LAMMPS output is captured by PyLammps wrapper
LAMMPS output is captured by PyLammps wrapper
LAMMPS output is captured by PyLammps wrapper
LAMMPS output is captured by PyLammps wrapper
LAMMPS output is captured by PyLammps wrapper
LAMMPS output is captured by PyLammps wrapper
LAMMPS output is captured by PyLammps wrapper
LAMMPS output is captured by PyLammps wrapper
LAMMPS output is captured by PyLammps wrapper
LAMMPS output is captured by PyLammps wrapper
LAMMPS output is captured by PyLammps wrapper
LAMMPS output is captured by PyLammps wrapper
LAMMPS output is captured by PyLammps wrapper
LAMMPS output is captured by PyLammps wrapper
LAMMPS output is captured by PyLammps wrapper
LAMMPS output is captured by PyLammps wrapper
LAMMPS output is captured by PyLammps wrapper
LAMMPS output is captured by PyLammps wrapper
LAMMPS output is captured by PyLammps wrapper
LAMMPS output is captured by PyLammps wrapper
LAMMPS output is captured by PyLammps wrapper
LAMMPS output is captured by PyLammps wrapper
LAMMPS output is captured by PyLammps wrapper
LAMMPS output is captured by PyLammps wrapper
LAMMPS output is captured by PyLammps wrapper
LAMMPS output is captured by PyLammps wrapper
LAMMPS output is captured by PyLammps wrapper
LAMMPS output is captured by PyLammps wrapper
LAMMPS output is captured by PyLammps wrapper
LAMMPS output is captured by PyLammps wrapper
LAMMPS output is captured by PyLammps wrapper
LAMMPS output is captured by PyLammps wrapper
LAMMPS output is captured by PyLammps wrapper
LAMMPS output is captured by PyLammps wrapper
LAMMPS output is captured by PyLammps wrapper
LAMMPS output is captured by PyLammps wrapper
LAMMPS output is captured by PyLammps wrapper
LAMMPS output is captured by PyLammps wrapper
LAMMPS output is captured by PyLammps wrapper
LAMMPS output is captured by PyLammps wrapper
LAMMPS output is captured by PyLammps wrapper
LAMMPS output is captured by PyLammps wrapper
LAMMPS output is captured by PyLammps wrapper
LAMMPS output is captured by PyLammps wrapper
LAMMPS output is captured by PyLammps wrapper
LAMMPS output is captured by PyLammps wrapper
LAMMPS output is captured by PyLammps wrapper
LAMMPS output is captured by PyLammps wrapper
LAMMPS output is captured by PyLammps wrapper
LAMMPS output is captured by PyLammps wrapper
LAMMPS output is captured by PyLammps wrapper
LAMMPS output is captured by PyLammps wrapper
LAMMPS output is captured by PyLammps wrapper
LAMMPS output is captured by PyLammps wrapper
LAMMPS output is captured by PyLammps wrapper
LAMMPS output is captured by PyLammps wrapper
LAMMPS output is captured by PyLammps wrapper
LAMMPS output is captured by PyLammps wrapper
LAMMPS output is captured by PyLammps wrapper
LAMMPS output is captured by PyLammps wrapper
LAMMPS output is captured by PyLammps wrapper
LAMMPS output is captured by PyLammps wrapper
LAMMPS output is captured by PyLammps wrapper
LAMMPS output is captured by PyLammps wrapper
LAMMPS output is captured by PyLammps wrapper
LAMMPS output is captured by PyLammps wrapper
LAMMPS output is captured by PyLammps wrapper
LAMMPS output is captured by PyLammps wrapper
LAMMPS output is captured by PyLammps wrapper
LAMMPS output is captured by PyLammps wrapper
LAMMPS output is captured by PyLammps wrapper
LAMMPS output is captured by PyLammps wrapper
LAMMPS output is captured by PyLammps wrapper
LAMMPS output is captured by PyLammps wrapper
LAMMPS output is captured by PyLammps wrapper
LAMMPS output is captured by PyLammps wrapper
LAMMPS output is captured by PyLammps wrapper
LAMMPS output is captured by PyLammps wrapper
LAMMPS output is captured by PyLammps wrapper
LAMMPS output is captured by PyLammps wrapper
LAMMPS output is captured by PyLammps wrapper
LAMMPS output is captured by PyLammps wrapper
LAMMPS output is captured by PyLammps wrapper
LAMMPS output is captured by PyLammps wrapper
LAMMPS output is captured by PyLammps wrapper
LAMMPS output is captured by PyLammps wrapper
LAMMPS output is captured by PyLammps wrapper
LAMMPS output is captured by PyLammps wrapper
LAMMPS output is captured by PyLammps wrapper
LAMMPS output is captured by PyLammps wrapper
LAMMPS output is captured by PyLammps wrapper
LAMMPS output is captured by PyLammps wrapper
LAMMPS output is captured by PyLammps wrapper
LAMMPS output is captured by PyLammps wrapper
LAMMPS output is captured by PyLammps wrapper
LAMMPS output is captured by PyLammps wrapper
LAMMPS output is captured by PyLammps wrapper
LAMMPS output is captured by PyLammps wrapper
LAMMPS output is captured by PyLammps wrapper
LAMMPS output is captured by PyLammps wrapper
LAMMPS output is captured by PyLammps wrapper
LAMMPS output is captured by PyLammps wrapper
LAMMPS output is captured by PyLammps wrapper
LAMMPS output is captured by PyLammps wrapper
LAMMPS output is captured by PyLammps wrapper
LAMMPS output is captured by PyLammps wrapper
LAMMPS output is captured by PyLammps wrapper
LAMMPS output is captured by PyLammps wrapper
LAMMPS output is captured by PyLammps wrapper
LAMMPS output is captured by PyLammps wrapper
LAMMPS output is captured by PyLammps wrapper
LAMMPS output is captured by PyLammps wrapper
LAMMPS output is captured by PyLammps wrapper
LAMMPS output is captured by PyLammps wrapper
LAMMPS output is captured by PyLammps wrapper
LAMMPS output is captured by PyLammps wrapper
LAMMPS output is captured by PyLammps wrapper
LAMMPS output is captured by PyLammps wrapper
LAMMPS output is captured by PyLammps wrapper
LAMMPS output is captured by PyLammps wrapper
LAMMPS output is captured by PyLammps wrapper
LAMMPS output is captured by PyLammps wrapper
LAMMPS output is captured by PyLammps wrapper
LAMMPS output is captured by PyLammps wrapper
LAMMPS output is captured by PyLammps wrapper
LAMMPS output is captured by PyLammps wrapper
LAMMPS output is captured by PyLammps wrapper
LAMMPS output is captured by PyLammps wrapper
LAMMPS output is captured by PyLammps wrapper
LAMMPS output is captured by PyLammps wrapper
LAMMPS output is captured by PyLammps wrapper
LAMMPS output is captured by PyLammps wrapper
LAMMPS output is captured by PyLammps wrapper
LAMMPS output is captured by PyLammps wrapper
LAMMPS output is captured by PyLammps wrapper
LAMMPS output is captured by PyLammps wrapper
LAMMPS output is captured by PyLammps wrapper
LAMMPS output is captured by PyLammps wrapper
LAMMPS output is captured by PyLammps wrapper
LAMMPS output is captured by PyLammps wrapper
LAMMPS output is captured by PyLammps wrapper
LAMMPS output is captured by PyLammps wrapper
LAMMPS output is captured by PyLammps wrapper
LAMMPS output is captured by PyLammps wrapper
LAMMPS output is captured by PyLammps wrapper
LAMMPS output is captured by PyLammps wrapper
LAMMPS output is captured by PyLammps wrapper
LAMMPS output is captured by PyLammps wrapper
LAMMPS output is captured by PyLammps wrapper
LAMMPS output is captured by PyLammps wrapper
LAMMPS output is captured by PyLammps wrapper
LAMMPS output is captured by PyLammps wrapper
LAMMPS output is captured by PyLammps wrapper
LAMMPS output is captured by PyLammps wrapper
LAMMPS output is captured by PyLammps wrapper
LAMMPS output is captured by PyLammps wrapper
LAMMPS output is captured by PyLammps wrapper
LAMMPS output is captured by PyLammps wrapper
LAMMPS output is captured by PyLammps wrapper
LAMMPS output is captured by PyLammps wrapper
LAMMPS output is captured by PyLammps wrapper
LAMMPS output is captured by PyLammps wrapper
LAMMPS output is captured by PyLammps wrapper
LAMMPS output is captured by PyLammps wrapper
LAMMPS output is captured by PyLammps wrapper
LAMMPS output is captured by PyLammps wrapper
LAMMPS output is captured by PyLammps wrapper
LAMMPS output is captured by PyLammps wrapper
LAMMPS output is captured by PyLammps wrapper
LAMMPS output is captured by PyLammps wrapper
LAMMPS output is captured by PyLammps wrapper
LAMMPS output is captured by PyLammps wrapper
LAMMPS output is captured by PyLammps wrapper
LAMMPS output is captured by PyLammps wrapper
LAMMPS output is captured by PyLammps wrapper
LAMMPS output is captured by PyLammps wrapper
LAMMPS output is captured by PyLammps wrapper
LAMMPS output is captured by PyLammps wrapper
LAMMPS output is captured by PyLammps wrapper
LAMMPS output is captured by PyLammps wrapper
LAMMPS output is captured by PyLammps wrapper
LAMMPS output is captured by PyLammps wrapper
LAMMPS output is captured by PyLammps wrapper
LAMMPS output is captured by PyLammps wrapper
LAMMPS output is captured by PyLammps wrapper
LAMMPS output is captured by PyLammps wrapper
LAMMPS output is captured by PyLammps wrapper
LAMMPS output is captured by PyLammps wrapper
LAMMPS output is captured by PyLammps wrapper
LAMMPS output is captured by PyLammps wrapper
LAMMPS output is captured by PyLammps wrapper
LAMMPS output is captured by PyLammps wrapper
LAMMPS output is captured by PyLammps wrapper
LAMMPS output is captured by PyLammps wrapper
LAMMPS output is captured by PyLammps wrapper
LAMMPS output is captured by PyLammps wrapper
LAMMPS output is captured by PyLammps wrapper
LAMMPS output is captured by PyLammps wrapper
LAMMPS output is captured by PyLammps wrapper
LAMMPS output is captured by PyLammps wrapper
LAMMPS output is captured by PyLammps wrapper
LAMMPS output is captured by PyLammps wrapper
LAMMPS output is captured by PyLammps wrapper
LAMMPS output is captured by PyLammps wrapper
LAMMPS output is captured by PyLammps wrapper
LAMMPS output is captured by PyLammps wrapper
LAMMPS output is captured by PyLammps wrapper
LAMMPS output is captured by PyLammps wrapper
LAMMPS output is captured by PyLammps wrapper
LAMMPS output is captured by PyLammps wrapper
LAMMPS output is captured by PyLammps wrapper
LAMMPS output is captured by PyLammps wrapper
LAMMPS output is captured by PyLammps wrapper
LAMMPS output is captured by PyLammps wrapper
LAMMPS output is captured by PyLammps wrapper
LAMMPS output is captured by PyLammps wrapper
LAMMPS output is captured by PyLammps wrapper
LAMMPS output is captured by PyLammps wrapper
LAMMPS output is captured by PyLammps wrapper
LAMMPS output is captured by PyLammps wrapper
LAMMPS output is captured by PyLammps wrapper
LAMMPS output is captured by PyLammps wrapper
LAMMPS output is captured by PyLammps wrapper
LAMMPS output is captured by PyLammps wrapper
LAMMPS output is captured by PyLammps wrapper
LAMMPS output is captured by PyLammps wrapper
LAMMPS output is captured by PyLammps wrapper
LAMMPS output is captured by PyLammps wrapper
LAMMPS output is captured by PyLammps wrapper
LAMMPS output is captured by PyLammps wrapper
LAMMPS output is captured by PyLammps wrapper
LAMMPS output is captured by PyLammps wrapper
LAMMPS output is captured by PyLammps wrapper
LAMMPS output is captured by PyLammps wrapper
LAMMPS output is captured by PyLammps wrapper
LAMMPS output is captured by PyLammps wrapper
LAMMPS output is captured by PyLammps wrapper
LAMMPS output is captured by PyLammps wrapper
LAMMPS output is captured by PyLammps wrapper
LAMMPS output is captured by PyLammps wrapper
LAMMPS output is captured by PyLammps wrapper
LAMMPS output is captured by PyLammps wrapper
LAMMPS output is captured by PyLammps wrapper
LAMMPS output is captured by PyLammps wrapper
LAMMPS output is captured by PyLammps wrapper
LAMMPS output is captured by PyLammps wrapper
LAMMPS output is captured by PyLammps wrapper
LAMMPS output is captured by PyLammps wrapper
