LAMMPS data. description

2592 atoms
1728 bonds
864 angles

2 atom types
1 bond types
1 angle types

0.0 26.3920001984 xlo xhi
0.0 22.8561426285 ylo yhi
0.0 43.0109996796 zlo zhi
-13.1960000992 0.0 0.0 xy xz yz

Atoms

1 1 2 -1.1128 1.3116824098580192e-05 2.3889925502464204 0.4480025726627136
2 1 1 0.5564 -1.3196000021802446e-08 2.484005695146093 1.413972277466957
3 1 1 0.5564 1.3103628098637803e-05 3.2999927974138865 0.1120006431656784
4 2 2 -1.1128 4.399005898517216 2.3889925502464204 0.4480025726627136
5 2 1 0.5564 4.3989925309691165 2.484005695146093 1.413972277466957
6 2 1 0.5564 4.399004935209209 3.2999927974138865 0.1120006431656784
7 3 2 -1.1128 8.796994200682784 2.3889925502464204 0.4480025726627136
8 3 1 0.5564 8.797008518342892 2.484005695146093 1.413972277466957
9 3 1 0.5564 8.796994213878783 3.2999927974138865 0.1120006431656784
10 4 2 -1.1128 13.196013453552101 2.3889925502464204 0.4480025726627136
11 4 1 0.5564 13.196000086004 2.484005695146093 1.413972277466957
12 4 1 0.5564 13.196013440356102 3.2999927974138865 0.1120006431656784
13 5 2 -1.1128 17.59400175571767 2.3889925502464204 0.4480025726627136
14 5 1 0.5564 17.593990314785582 2.484005695146093 1.413972277466957
15 5 1 0.5564 17.594001768913667 3.2999927974138865 0.1120006431656784
16 6 2 -1.1128 21.992994299882785 2.3889925502464204 0.4480025726627136
17 6 1 0.5564 21.993007667430884 2.484005695146093 1.413972277466957
18 6 1 0.5564 21.992994313078785 3.2999927974138865 0.1120006431656784
19 7 2 -1.1128 -2.199007980490888 6.1979918497022854 0.4480025726627136
20 7 1 0.5564 -2.1989948768627894 6.294010162042475 1.413972277466957
21 7 1 0.5564 -2.199007742962886 7.108991616890755 0.1120006431656784
22 8 2 -1.1128 2.199007742962885 6.1979918497022854 0.4480025726627136
23 8 1 0.5564 2.1989946393347877 6.294010162042475 1.413972277466957
24 8 1 0.5564 2.199007980490888 7.108991616890755 0.1120006431656784
25 9 2 -1.1128 6.598000524656003 6.1979918497022854 0.4480025726627136
26 9 1 0.5564 6.5979867084439 6.294010162042475 1.413972277466957
27 9 1 0.5564 6.598000049600001 7.108991616890755 0.1120006431656784
28 10 2 -1.1128 10.996015535525773 6.1979918497022854 0.4480025726627136
29 10 1 0.5564 10.996002194369671 6.294010162042475 1.413972277466957
30 10 1 0.5564 10.996015561917773 7.108991616890755 0.1120006431656784
31 11 2 -1.1128 15.395009029802894 6.1979918497022854 0.4480025726627136
32 11 1 0.5564 15.394994738534786 6.294010162042475 1.413972277466957
33 11 1 0.5564 15.39500807969089 7.108991616890755 0.1120006431656784
34 12 2 -1.1128 19.79399872363199 6.1979918497022854 0.4480025726627136
35 12 1 0.5564 19.79398728269991 6.294010162042475 1.413972277466957
36 12 1 0.5564 19.794000623856004 7.108991616890755 0.1120006431656784
37 13 2 -1.1128 -4.399005410265214 10.006990440617729 0.4480025726627136
38 13 1 0.5564 -4.39901828956131 10.103009232936913 1.413972277466957
39 13 1 0.5564 -4.3990054234612135 10.917990687785196 0.1120006431656784
40 14 2 -1.1128 1.3341156100069053e-05 10.006990440617729 0.4480025726627136
41 14 1 0.5564 -1.319600073979313e-08 10.103009232936913 1.413972277466957
42 14 1 0.5564 1.2879296096699419e-05 10.917990687785196 0.1120006431656784
43 15 2 -1.1128 4.399005410265214 10.006990440617729 0.4480025726627136
44 15 1 0.5564 4.398993006025119 10.103009232936913 1.413972277466957
45 15 1 0.5564 4.399005898517216 10.917990687785196 0.1120006431656784
46 16 2 -1.1128 8.796993263766778 10.006990440617729 0.4480025726627136
47 16 1 0.5564 8.797008518342892 10.103009232936913 1.413972277466957
48 16 1 0.5564 8.796994200682784 10.917990687785196 0.1120006431656784
49 17 2 -1.1128 13.196014390468108 10.006990440617729 0.4480025726627136
50 17 1 0.5564 13.19600103611601 10.103009232936913 1.413972277466957
51 17 1 0.5564 13.196014403664108 10.917990687785196 0.1120006431656784
52 18 2 -1.1128 17.594003669137685 10.006990440617729 0.4480025726627136
53 18 1 0.5564 17.59398841456157 10.103009232936913 1.413972277466957
54 18 1 0.5564 17.594003682333685 10.917990687785196 0.1120006431656784
55 19 2 -1.1128 -6.598000524656005 13.816995616054532 0.4480025726627136
56 19 1 0.5564 -6.598013879008104 13.912008280975208 1.413972277466957
57 19 1 0.5564 -6.597999574543997 14.72799492612015 0.1120006431656784
58 20 2 -1.1128 -2.1990079804908884 13.816995616054532 0.4480025726627136
59 20 1 0.5564 -2.1989955762507933 13.912008280975208 1.413972277466957
60 20 1 0.5564 -2.1990075054348845 14.72799492612015 0.1120006431656784
61 21 2 -1.1128 2.199007030378879 13.816995616054532 0.4480025726627136
62 21 1 0.5564 2.1989946261387874 13.912008280975208 1.413972277466957
63 21 1 0.5564 2.199007980490887 14.72799492612015 0.1120006431656784
64 22 2 -1.1128 6.597999574543995 13.816995616054532 0.4480025726627136
65 22 1 0.5564 6.597985270079889 13.912008280975208 1.413972277466957
66 22 1 0.5564 6.597999574543997 14.72799492612015 0.1120006431656784
67 23 2 -1.1128 10.996014585413763 13.816995616054532 0.4480025726627136
68 23 1 0.5564 10.996002207565672 13.912008280975208 1.413972277466957
69 23 1 0.5564 10.996015535525773 14.72799492612015 0.1120006431656784
70 24 2 -1.1128 15.39500712957888 13.816995616054532 0.4480025726627136
71 24 1 0.5564 15.394994725338789 13.912008280975208 1.413972277466957
72 24 1 0.5564 15.395008079690887 14.72799492612015 0.1120006431656784
73 25 2 -1.1128 -8.79699515079479 17.625993726990977 0.4480025726627136
74 25 1 0.5564 -8.79699515079479 17.72199057741324 1.413972277466957
75 25 1 0.5564 -8.796995163990792 18.536994934116436 0.1120006431656784
76 26 2 -1.1128 -4.399005423461213 17.625993726990977 0.4480025726627136
77 26 1 0.5564 -4.399005872125215 17.72199057741324 1.413972277466957
78 26 1 0.5564 -4.399005410265214 18.536994934116436 0.1120006431656784
79 27 2 -1.1128 1.3354352100616061e-05 17.625993726990977 0.4480025726627136
80 27 1 0.5564 1.335435210040305e-05 17.72199057741324 1.413972277466957
81 27 1 0.5564 1.2391044092920972e-05 18.536994934116436 0.1120006431656784
82 28 2 -1.1128 4.39900494840521 17.625993726990977 0.4480025726627136
83 28 1 0.5564 4.399003998293203 17.72199057741324 1.413972277466957
84 28 1 0.5564 4.399004935209209 18.536994934116436 0.1120006431656784
85 29 2 -1.1128 8.79699515079479 17.625993726990977 0.4480025726627136
86 29 1 0.5564 8.796993250570779 17.72199057741324 1.413972277466957
87 29 1 0.5564 8.796993263766776 18.536994934116436 0.1120006431656784
88 30 2 -1.1128 13.196014403664106 17.625993726990977 0.4480025726627136
89 30 1 0.5564 13.196012503440095 17.72199057741324 1.413972277466957
90 30 1 0.5564 13.196012490244094 18.536994934116436 0.1120006431656784
91 31 2 -1.1128 -10.996992118709112 21.434991837927427 0.4480025726627136
92 31 1 0.5564 -10.997004522949206 21.5310115902046 1.413972277466957
93 31 1 0.5564 -10.996992105513113 22.345993045052886 0.1120006431656784
94 32 2 -1.1128 -6.597999574543997 21.434991837927427 0.4480025726627136
95 32 1 0.5564 -6.598012453840092 21.5310115902046 1.413972277466957
96 32 1 0.5564 -6.598000062796001 22.345993045052886 0.1120006431656784
97 33 2 -1.1128 -2.199007980490887 21.434991837927427 0.4480025726627136
98 33 1 0.5564 -2.198994652530787 21.5310115902046 1.413972277466957
99 33 1 0.5564 -2.199007993686888 22.345993045052886 0.1120006431656784
100 34 2 -1.1128 2.199008930602895 21.434991837927427 0.4480025726627136
101 34 1 0.5564 2.198995576250795 21.5310115902046 1.413972277466957
102 34 1 0.5564 2.199007993686885 22.345993045052886 0.1120006431656784
103 35 2 -1.1128 6.598000524656004 21.434991837927427 0.4480025726627136
104 35 1 0.5564 6.597986220191896 21.5310115902046 1.413972277466957
105 35 1 0.5564 6.598000537852006 22.345993045052886 0.1120006431656784
106 36 2 -1.1128 10.99601651202978 21.434991837927427 0.4480025726627136
107 36 1 0.5564 10.996002181173672 21.5310115902046 1.413972277466957
108 36 1 0.5564 10.99601649883378 22.345993045052886 0.1120006431656784
109 37 2 -1.1128 1.3116824098580192e-05 2.3889925502464204 7.617018249822871
110 37 1 0.5564 -1.3196000021802446e-08 2.484005695146093 8.582987782583116
111 37 1 0.5564 1.3103628098637803e-05 3.2999927974138865 7.281017295241829
112 38 2 -1.1128 4.399005898517216 2.3889925502464204 7.617018249822871
113 38 1 0.5564 4.3989925309691165 2.484005695146093 8.582987782583116
114 38 1 0.5564 4.399004935209209 3.2999927974138865 7.281017295241829
115 39 2 -1.1128 8.796994200682784 2.3889925502464204 7.617018249822871
116 39 1 0.5564 8.797008518342892 2.484005695146093 8.582987782583116
117 39 1 0.5564 8.796994213878783 3.2999927974138865 7.281017295241829
118 40 2 -1.1128 13.196013453552101 2.3889925502464204 7.617018249822871
119 40 1 0.5564 13.196000086004 2.484005695146093 8.582987782583116
120 40 1 0.5564 13.196013440356102 3.2999927974138865 7.281017295241829
121 41 2 -1.1128 17.59400175571767 2.3889925502464204 7.617018249822871
122 41 1 0.5564 17.593990314785582 2.484005695146093 8.582987782583116
123 41 1 0.5564 17.594001768913667 3.2999927974138865 7.281017295241829
124 42 2 -1.1128 21.992994299882785 2.3889925502464204 7.617018249822871
125 42 1 0.5564 21.993007667430884 2.484005695146093 8.582987782583116
126 42 1 0.5564 21.992994313078785 3.2999927974138865 7.281017295241829
127 43 2 -1.1128 -2.199007980490888 6.1979918497022854 7.617018249822871
128 43 1 0.5564 -2.1989948768627894 6.294010162042475 8.582987782583116
129 43 1 0.5564 -2.199007742962886 7.108991616890755 7.281017295241829
130 44 2 -1.1128 2.199007742962885 6.1979918497022854 7.617018249822871
131 44 1 0.5564 2.1989946393347877 6.294010162042475 8.582987782583116
132 44 1 0.5564 2.199007980490888 7.108991616890755 7.281017295241829
133 45 2 -1.1128 6.598000524656003 6.1979918497022854 7.617018249822871
134 45 1 0.5564 6.5979867084439 6.294010162042475 8.582987782583116
135 45 1 0.5564 6.598000049600001 7.108991616890755 7.281017295241829
136 46 2 -1.1128 10.996015535525773 6.1979918497022854 7.617018249822871
137 46 1 0.5564 10.996002194369671 6.294010162042475 8.582987782583116
138 46 1 0.5564 10.996015561917773 7.108991616890755 7.281017295241829
139 47 2 -1.1128 15.395009029802894 6.1979918497022854 7.617018249822871
140 47 1 0.5564 15.394994738534786 6.294010162042475 8.582987782583116
141 47 1 0.5564 15.39500807969089 7.108991616890755 7.281017295241829
142 48 2 -1.1128 19.79399872363199 6.1979918497022854 7.617018249822871
143 48 1 0.5564 19.79398728269991 6.294010162042475 8.582987782583116
144 48 1 0.5564 19.794000623856004 7.108991616890755 7.281017295241829
145 49 2 -1.1128 -4.399005410265214 10.006990440617729 7.617018249822871
146 49 1 0.5564 -4.39901828956131 10.103009232936913 8.582987782583116
147 49 1 0.5564 -4.3990054234612135 10.917990687785196 7.281017295241829
148 50 2 -1.1128 1.3341156100069053e-05 10.006990440617729 7.617018249822871
149 50 1 0.5564 -1.319600073979313e-08 10.103009232936913 8.582987782583116
150 50 1 0.5564 1.2879296096699419e-05 10.917990687785196 7.281017295241829
151 51 2 -1.1128 4.399005410265214 10.006990440617729 7.617018249822871
152 51 1 0.5564 4.398993006025119 10.103009232936913 8.582987782583116
153 51 1 0.5564 4.399005898517216 10.917990687785196 7.281017295241829
154 52 2 -1.1128 8.796993263766778 10.006990440617729 7.617018249822871
155 52 1 0.5564 8.797008518342892 10.103009232936913 8.582987782583116
156 52 1 0.5564 8.796994200682784 10.917990687785196 7.281017295241829
157 53 2 -1.1128 13.196014390468108 10.006990440617729 7.617018249822871
158 53 1 0.5564 13.19600103611601 10.103009232936913 8.582987782583116
159 53 1 0.5564 13.196014403664108 10.917990687785196 7.281017295241829
160 54 2 -1.1128 17.594003669137685 10.006990440617729 7.617018249822871
161 54 1 0.5564 17.59398841456157 10.103009232936913 8.582987782583116
162 54 1 0.5564 17.594003682333685 10.917990687785196 7.281017295241829
163 55 2 -1.1128 -6.598000524656005 13.816995616054532 7.617018249822871
164 55 1 0.5564 -6.598013879008104 13.912008280975208 8.582987782583116
165 55 1 0.5564 -6.597999574543997 14.72799492612015 7.281017295241829
166 56 2 -1.1128 -2.1990079804908884 13.816995616054532 7.617018249822871
167 56 1 0.5564 -2.1989955762507933 13.912008280975208 8.582987782583116
168 56 1 0.5564 -2.1990075054348845 14.72799492612015 7.281017295241829
169 57 2 -1.1128 2.199007030378879 13.816995616054532 7.617018249822871
170 57 1 0.5564 2.1989946261387874 13.912008280975208 8.582987782583116
171 57 1 0.5564 2.199007980490887 14.72799492612015 7.281017295241829
172 58 2 -1.1128 6.597999574543995 13.816995616054532 7.617018249822871
173 58 1 0.5564 6.597985270079889 13.912008280975208 8.582987782583116
174 58 1 0.5564 6.597999574543997 14.72799492612015 7.281017295241829
175 59 2 -1.1128 10.996014585413763 13.816995616054532 7.617018249822871
176 59 1 0.5564 10.996002207565672 13.912008280975208 8.582987782583116
177 59 1 0.5564 10.996015535525773 14.72799492612015 7.281017295241829
178 60 2 -1.1128 15.39500712957888 13.816995616054532 7.617018249822871
179 60 1 0.5564 15.394994725338789 13.912008280975208 8.582987782583116
180 60 1 0.5564 15.395008079690887 14.72799492612015 7.281017295241829
181 61 2 -1.1128 -8.79699515079479 17.625993726990977 7.617018249822871
182 61 1 0.5564 -8.79699515079479 17.72199057741324 8.582987782583116
183 61 1 0.5564 -8.796995163990792 18.536994934116436 7.281017295241829
184 62 2 -1.1128 -4.399005423461213 17.625993726990977 7.617018249822871
185 62 1 0.5564 -4.399005872125215 17.72199057741324 8.582987782583116
186 62 1 0.5564 -4.399005410265214 18.536994934116436 7.281017295241829
187 63 2 -1.1128 1.3354352100616061e-05 17.625993726990977 7.617018249822871
188 63 1 0.5564 1.335435210040305e-05 17.72199057741324 8.582987782583116
189 63 1 0.5564 1.2391044092920972e-05 18.536994934116436 7.281017295241829
190 64 2 -1.1128 4.39900494840521 17.625993726990977 7.617018249822871
191 64 1 0.5564 4.399003998293203 17.72199057741324 8.582987782583116
192 64 1 0.5564 4.399004935209209 18.536994934116436 7.281017295241829
193 65 2 -1.1128 8.79699515079479 17.625993726990977 7.617018249822871
194 65 1 0.5564 8.796993250570779 17.72199057741324 8.582987782583116
195 65 1 0.5564 8.796993263766776 18.536994934116436 7.281017295241829
196 66 2 -1.1128 13.196014403664106 17.625993726990977 7.617018249822871
197 66 1 0.5564 13.196012503440095 17.72199057741324 8.582987782583116
198 66 1 0.5564 13.196012490244094 18.536994934116436 7.281017295241829
199 67 2 -1.1128 -10.996992118709112 21.434991837927427 7.617018249822871
200 67 1 0.5564 -10.997004522949206 21.5310115902046 8.582987782583116
201 67 1 0.5564 -10.996992105513113 22.345993045052886 7.281017295241829
202 68 2 -1.1128 -6.597999574543997 21.434991837927427 7.617018249822871
203 68 1 0.5564 -6.598012453840092 21.5310115902046 8.582987782583116
204 68 1 0.5564 -6.598000062796001 22.345993045052886 7.281017295241829
205 69 2 -1.1128 -2.199007980490887 21.434991837927427 7.617018249822871
206 69 1 0.5564 -2.198994652530787 21.5310115902046 8.582987782583116
207 69 1 0.5564 -2.199007993686888 22.345993045052886 7.281017295241829
208 70 2 -1.1128 2.199008930602895 21.434991837927427 7.617018249822871
209 70 1 0.5564 2.198995576250795 21.5310115902046 8.582987782583116
210 70 1 0.5564 2.199007993686885 22.345993045052886 7.281017295241829
211 71 2 -1.1128 6.598000524656004 21.434991837927427 7.617018249822871
212 71 1 0.5564 6.597986220191896 21.5310115902046 8.582987782583116
213 71 1 0.5564 6.598000537852006 22.345993045052886 7.281017295241829
214 72 2 -1.1128 10.99601651202978 21.434991837927427 7.617018249822871
215 72 1 0.5564 10.996002181173672 21.5310115902046 8.582987782583116
216 72 1 0.5564 10.99601649883378 22.345993045052886 7.281017295241829
217 73 2 -1.1128 1.3116824098580192e-05 2.3889925502464204 14.785001777686716
218 73 1 0.5564 -1.3196000021802446e-08 2.484005695146093 15.751029977450525
219 73 1 0.5564 1.3103628098637803e-05 3.2999927974138865 14.44900133923767
220 74 2 -1.1128 4.399005898517216 2.3889925502464204 14.785001777686716
221 74 1 0.5564 4.3989925309691165 2.484005695146093 15.751029977450525
222 74 1 0.5564 4.399004935209209 3.2999927974138865 14.44900133923767
223 75 2 -1.1128 8.796994200682784 2.3889925502464204 14.785001777686716
224 75 1 0.5564 8.797008518342892 2.484005695146093 15.751029977450525
225 75 1 0.5564 8.796994213878783 3.2999927974138865 14.44900133923767
226 76 2 -1.1128 13.196013453552101 2.3889925502464204 14.785001777686716
227 76 1 0.5564 13.196000086004 2.484005695146093 15.751029977450525
228 76 1 0.5564 13.196013440356102 3.2999927974138865 14.44900133923767
229 77 2 -1.1128 17.59400175571767 2.3889925502464204 14.785001777686716
230 77 1 0.5564 17.593990314785582 2.484005695146093 15.751029977450525
231 77 1 0.5564 17.594001768913667 3.2999927974138865 14.44900133923767
232 78 2 -1.1128 21.992994299882785 2.3889925502464204 14.785001777686716
233 78 1 0.5564 21.993007667430884 2.484005695146093 15.751029977450525
234 78 1 0.5564 21.992994313078785 3.2999927974138865 14.44900133923767
235 79 2 -1.1128 -2.199007980490888 6.1979918497022854 14.785001777686716
236 79 1 0.5564 -2.1989948768627894 6.294010162042475 15.751029977450525
237 79 1 0.5564 -2.199007742962886 7.108991616890755 14.44900133923767
238 80 2 -1.1128 2.199007742962885 6.1979918497022854 14.785001777686716
239 80 1 0.5564 2.1989946393347877 6.294010162042475 15.751029977450525
240 80 1 0.5564 2.199007980490888 7.108991616890755 14.44900133923767
241 81 2 -1.1128 6.598000524656003 6.1979918497022854 14.785001777686716
242 81 1 0.5564 6.5979867084439 6.294010162042475 15.751029977450525
243 81 1 0.5564 6.598000049600001 7.108991616890755 14.44900133923767
244 82 2 -1.1128 10.996015535525773 6.1979918497022854 14.785001777686716
245 82 1 0.5564 10.996002194369671 6.294010162042475 15.751029977450525
246 82 1 0.5564 10.996015561917773 7.108991616890755 14.44900133923767
247 83 2 -1.1128 15.395009029802894 6.1979918497022854 14.785001777686716
248 83 1 0.5564 15.394994738534786 6.294010162042475 15.751029977450525
249 83 1 0.5564 15.39500807969089 7.108991616890755 14.44900133923767
250 84 2 -1.1128 19.79399872363199 6.1979918497022854 14.785001777686716
251 84 1 0.5564 19.79398728269991 6.294010162042475 15.751029977450525
252 84 1 0.5564 19.794000623856004 7.108991616890755 14.44900133923767
253 85 2 -1.1128 -4.399005410265214 10.006990440617729 14.785001777686716
254 85 1 0.5564 -4.39901828956131 10.103009232936913 15.751029977450525
255 85 1 0.5564 -4.3990054234612135 10.917990687785196 14.44900133923767
256 86 2 -1.1128 1.3341156100069053e-05 10.006990440617729 14.785001777686716
257 86 1 0.5564 -1.319600073979313e-08 10.103009232936913 15.751029977450525
258 86 1 0.5564 1.2879296096699419e-05 10.917990687785196 14.44900133923767
259 87 2 -1.1128 4.399005410265214 10.006990440617729 14.785001777686716
260 87 1 0.5564 4.398993006025119 10.103009232936913 15.751029977450525
261 87 1 0.5564 4.399005898517216 10.917990687785196 14.44900133923767
262 88 2 -1.1128 8.796993263766778 10.006990440617729 14.785001777686716
263 88 1 0.5564 8.797008518342892 10.103009232936913 15.751029977450525
264 88 1 0.5564 8.796994200682784 10.917990687785196 14.44900133923767
265 89 2 -1.1128 13.196014390468108 10.006990440617729 14.785001777686716
266 89 1 0.5564 13.19600103611601 10.103009232936913 15.751029977450525
267 89 1 0.5564 13.196014403664108 10.917990687785196 14.44900133923767
268 90 2 -1.1128 17.594003669137685 10.006990440617729 14.785001777686716
269 90 1 0.5564 17.59398841456157 10.103009232936913 15.751029977450525
270 90 1 0.5564 17.594003682333685 10.917990687785196 14.44900133923767
271 91 2 -1.1128 -6.598000524656005 13.816995616054532 14.785001777686716
272 91 1 0.5564 -6.598013879008104 13.912008280975208 15.751029977450525
273 91 1 0.5564 -6.597999574543997 14.72799492612015 14.44900133923767
274 92 2 -1.1128 -2.1990079804908884 13.816995616054532 14.785001777686716
275 92 1 0.5564 -2.1989955762507933 13.912008280975208 15.751029977450525
276 92 1 0.5564 -2.1990075054348845 14.72799492612015 14.44900133923767
277 93 2 -1.1128 2.199007030378879 13.816995616054532 14.785001777686716
278 93 1 0.5564 2.1989946261387874 13.912008280975208 15.751029977450525
279 93 1 0.5564 2.199007980490887 14.72799492612015 14.44900133923767
280 94 2 -1.1128 6.597999574543995 13.816995616054532 14.785001777686716
281 94 1 0.5564 6.597985270079889 13.912008280975208 15.751029977450525
282 94 1 0.5564 6.597999574543997 14.72799492612015 14.44900133923767
283 95 2 -1.1128 10.996014585413763 13.816995616054532 14.785001777686716
284 95 1 0.5564 10.996002207565672 13.912008280975208 15.751029977450525
285 95 1 0.5564 10.996015535525773 14.72799492612015 14.44900133923767
286 96 2 -1.1128 15.39500712957888 13.816995616054532 14.785001777686716
287 96 1 0.5564 15.394994725338789 13.912008280975208 15.751029977450525
288 96 1 0.5564 15.395008079690887 14.72799492612015 14.44900133923767
289 97 2 -1.1128 -8.79699515079479 17.625993726990977 14.785001777686716
290 97 1 0.5564 -8.79699515079479 17.72199057741324 15.751029977450525
291 97 1 0.5564 -8.796995163990792 18.536994934116436 14.44900133923767
292 98 2 -1.1128 -4.399005423461213 17.625993726990977 14.785001777686716
293 98 1 0.5564 -4.399005872125215 17.72199057741324 15.751029977450525
294 98 1 0.5564 -4.399005410265214 18.536994934116436 14.44900133923767
295 99 2 -1.1128 1.3354352100616061e-05 17.625993726990977 14.785001777686716
296 99 1 0.5564 1.335435210040305e-05 17.72199057741324 15.751029977450525
297 99 1 0.5564 1.2391044092920972e-05 18.536994934116436 14.44900133923767
298 100 2 -1.1128 4.39900494840521 17.625993726990977 14.785001777686716
299 100 1 0.5564 4.399003998293203 17.72199057741324 15.751029977450525
300 100 1 0.5564 4.399004935209209 18.536994934116436 14.44900133923767
301 101 2 -1.1128 8.79699515079479 17.625993726990977 14.785001777686716
302 101 1 0.5564 8.796993250570779 17.72199057741324 15.751029977450525
303 101 1 0.5564 8.796993263766776 18.536994934116436 14.44900133923767
304 102 2 -1.1128 13.196014403664106 17.625993726990977 14.785001777686716
305 102 1 0.5564 13.196012503440095 17.72199057741324 15.751029977450525
306 102 1 0.5564 13.196012490244094 18.536994934116436 14.44900133923767
307 103 2 -1.1128 -10.996992118709112 21.434991837927427 14.785001777686716
308 103 1 0.5564 -10.997004522949206 21.5310115902046 15.751029977450525
309 103 1 0.5564 -10.996992105513113 22.345993045052886 14.44900133923767
310 104 2 -1.1128 -6.597999574543997 21.434991837927427 14.785001777686716
311 104 1 0.5564 -6.598012453840092 21.5310115902046 15.751029977450525
312 104 1 0.5564 -6.598000062796001 22.345993045052886 14.44900133923767
313 105 2 -1.1128 -2.199007980490887 21.434991837927427 14.785001777686716
314 105 1 0.5564 -2.198994652530787 21.5310115902046 15.751029977450525
315 105 1 0.5564 -2.199007993686888 22.345993045052886 14.44900133923767
316 106 2 -1.1128 2.199008930602895 21.434991837927427 14.785001777686716
317 106 1 0.5564 2.198995576250795 21.5310115902046 15.751029977450525
318 106 1 0.5564 2.199007993686885 22.345993045052886 14.44900133923767
319 107 2 -1.1128 6.598000524656004 21.434991837927427 14.785001777686716
320 107 1 0.5564 6.597986220191896 21.5310115902046 15.751029977450525
321 107 1 0.5564 6.598000537852006 22.345993045052886 14.44900133923767
322 108 2 -1.1128 10.99601651202978 21.434991837927427 14.785001777686716
323 108 1 0.5564 10.996002181173672 21.5310115902046 15.751029977450525
324 108 1 0.5564 10.99601649883378 22.345993045052886 14.44900133923767
325 109 2 -1.1128 1.3116824098580192e-05 2.3889925502464204 21.954017626890874
326 109 1 0.5564 -1.3196000021802446e-08 2.484005695146093 22.91998865069911
327 109 1 0.5564 1.3103628098637803e-05 3.2999927974138865 21.61801718844183
328 110 2 -1.1128 4.399005898517216 2.3889925502464204 21.954017626890874
329 110 1 0.5564 4.3989925309691165 2.484005695146093 22.91998865069911
330 110 1 0.5564 4.399004935209209 3.2999927974138865 21.61801718844183
331 111 2 -1.1128 8.796994200682784 2.3889925502464204 21.954017626890874
332 111 1 0.5564 8.797008518342892 2.484005695146093 22.91998865069911
333 111 1 0.5564 8.796994213878783 3.2999927974138865 21.61801718844183
334 112 2 -1.1128 13.196013453552101 2.3889925502464204 21.954017626890874
335 112 1 0.5564 13.196000086004 2.484005695146093 22.91998865069911
336 112 1 0.5564 13.196013440356102 3.2999927974138865 21.61801718844183
337 113 2 -1.1128 17.59400175571767 2.3889925502464204 21.954017626890874
338 113 1 0.5564 17.593990314785582 2.484005695146093 22.91998865069911
339 113 1 0.5564 17.594001768913667 3.2999927974138865 21.61801718844183
340 114 2 -1.1128 21.992994299882785 2.3889925502464204 21.954017626890874
341 114 1 0.5564 21.993007667430884 2.484005695146093 22.91998865069911
342 114 1 0.5564 21.992994313078785 3.2999927974138865 21.61801718844183
343 115 2 -1.1128 -2.199007980490888 6.1979918497022854 21.954017626890874
344 115 1 0.5564 -2.1989948768627894 6.294010162042475 22.91998865069911
345 115 1 0.5564 -2.199007742962886 7.108991616890755 21.61801718844183
346 116 2 -1.1128 2.199007742962885 6.1979918497022854 21.954017626890874
347 116 1 0.5564 2.1989946393347877 6.294010162042475 22.91998865069911
348 116 1 0.5564 2.199007980490888 7.108991616890755 21.61801718844183
349 117 2 -1.1128 6.598000524656003 6.1979918497022854 21.954017626890874
350 117 1 0.5564 6.5979867084439 6.294010162042475 22.91998865069911
351 117 1 0.5564 6.598000049600001 7.108991616890755 21.61801718844183
352 118 2 -1.1128 10.996015535525773 6.1979918497022854 21.954017626890874
353 118 1 0.5564 10.996002194369671 6.294010162042475 22.91998865069911
354 118 1 0.5564 10.996015561917773 7.108991616890755 21.61801718844183
355 119 2 -1.1128 15.395009029802894 6.1979918497022854 21.954017626890874
356 119 1 0.5564 15.394994738534786 6.294010162042475 22.91998865069911
357 119 1 0.5564 15.39500807969089 7.108991616890755 21.61801718844183
358 120 2 -1.1128 19.79399872363199 6.1979918497022854 21.954017626890874
359 120 1 0.5564 19.79398728269991 6.294010162042475 22.91998865069911
360 120 1 0.5564 19.794000623856004 7.108991616890755 21.61801718844183
361 121 2 -1.1128 -4.399005410265214 10.006990440617729 21.954017626890874
362 121 1 0.5564 -4.39901828956131 10.103009232936913 22.91998865069911
363 121 1 0.5564 -4.3990054234612135 10.917990687785196 21.61801718844183
364 122 2 -1.1128 1.3341156100069053e-05 10.006990440617729 21.954017626890874
365 122 1 0.5564 -1.319600073979313e-08 10.103009232936913 22.91998865069911
366 122 1 0.5564 1.2879296096699419e-05 10.917990687785196 21.61801718844183
367 123 2 -1.1128 4.399005410265214 10.006990440617729 21.954017626890874
368 123 1 0.5564 4.398993006025119 10.103009232936913 22.91998865069911
369 123 1 0.5564 4.399005898517216 10.917990687785196 21.61801718844183
370 124 2 -1.1128 8.796993263766778 10.006990440617729 21.954017626890874
371 124 1 0.5564 8.797008518342892 10.103009232936913 22.91998865069911
372 124 1 0.5564 8.796994200682784 10.917990687785196 21.61801718844183
373 125 2 -1.1128 13.196014390468108 10.006990440617729 21.954017626890874
374 125 1 0.5564 13.19600103611601 10.103009232936913 22.91998865069911
375 125 1 0.5564 13.196014403664108 10.917990687785196 21.61801718844183
376 126 2 -1.1128 17.594003669137685 10.006990440617729 21.954017626890874
377 126 1 0.5564 17.59398841456157 10.103009232936913 22.91998865069911
378 126 1 0.5564 17.594003682333685 10.917990687785196 21.61801718844183
379 127 2 -1.1128 -6.598000524656005 13.816995616054532 21.954017626890874
380 127 1 0.5564 -6.598013879008104 13.912008280975208 22.91998865069911
381 127 1 0.5564 -6.597999574543997 14.72799492612015 21.61801718844183
382 128 2 -1.1128 -2.1990079804908884 13.816995616054532 21.954017626890874
383 128 1 0.5564 -2.1989955762507933 13.912008280975208 22.91998865069911
384 128 1 0.5564 -2.1990075054348845 14.72799492612015 21.61801718844183
385 129 2 -1.1128 2.199007030378879 13.816995616054532 21.954017626890874
386 129 1 0.5564 2.1989946261387874 13.912008280975208 22.91998865069911
387 129 1 0.5564 2.199007980490887 14.72799492612015 21.61801718844183
388 130 2 -1.1128 6.597999574543995 13.816995616054532 21.954017626890874
389 130 1 0.5564 6.597985270079889 13.912008280975208 22.91998865069911
390 130 1 0.5564 6.597999574543997 14.72799492612015 21.61801718844183
391 131 2 -1.1128 10.996014585413763 13.816995616054532 21.954017626890874
392 131 1 0.5564 10.996002207565672 13.912008280975208 22.91998865069911
393 131 1 0.5564 10.996015535525773 14.72799492612015 21.61801718844183
394 132 2 -1.1128 15.39500712957888 13.816995616054532 21.954017626890874
395 132 1 0.5564 15.394994725338789 13.912008280975208 22.91998865069911
396 132 1 0.5564 15.395008079690887 14.72799492612015 21.61801718844183
397 133 2 -1.1128 -8.79699515079479 17.625993726990977 21.954017626890874
398 133 1 0.5564 -8.79699515079479 17.72199057741324 22.91998865069911
399 133 1 0.5564 -8.796995163990792 18.536994934116436 21.61801718844183
400 134 2 -1.1128 -4.399005423461213 17.625993726990977 21.954017626890874
401 134 1 0.5564 -4.399005872125215 17.72199057741324 22.91998865069911
402 134 1 0.5564 -4.399005410265214 18.536994934116436 21.61801718844183
403 135 2 -1.1128 1.3354352100616061e-05 17.625993726990977 21.954017626890874
404 135 1 0.5564 1.335435210040305e-05 17.72199057741324 22.91998865069911
405 135 1 0.5564 1.2391044092920972e-05 18.536994934116436 21.61801718844183
406 136 2 -1.1128 4.39900494840521 17.625993726990977 21.954017626890874
407 136 1 0.5564 4.399003998293203 17.72199057741324 22.91998865069911
408 136 1 0.5564 4.399004935209209 18.536994934116436 21.61801718844183
409 137 2 -1.1128 8.79699515079479 17.625993726990977 21.954017626890874
410 137 1 0.5564 8.796993250570779 17.72199057741324 22.91998865069911
411 137 1 0.5564 8.796993263766776 18.536994934116436 21.61801718844183
412 138 2 -1.1128 13.196014403664106 17.625993726990977 21.954017626890874