LAMMPS data. description

3456 atoms
2304 bonds
1152 angles

2 atom types
1 bond types
1 angle types

0.0 26.91984 xlo xhi
0.0 23.313265 ylo yhi
0.0 58.49496 zlo zhi
-13.45992 0.0 0.0 xy xz yz

Atoms

1 1 2 -1.1128 1.345992000007391e-05 2.4367723975950004 0.45696262752
2 1 1 0.5564 -9.963147832081631e-17 2.53177395247 1.42294839696
3 1 1 0.5564 1.3459920000074474e-05 3.347761540735 0.12096757728
4 2 2 -1.1128 4.48698547128 2.4367723975950004 0.45696262752
5 2 1 0.5564 4.48697201136 2.53177395247 1.42294839696
6 2 1 0.5564 4.48698547128 3.347761540735 0.12096757728
7 3 2 -1.1128 8.972934528719998 2.4367723975950004 0.45696262752
8 3 1 0.5564 8.972947988640001 2.53177395247 1.42294839696
9 3 1 0.5564 8.972934528719998 3.347761540735 0.12096757728
10 4 2 -1.1128 13.45993345992 2.4367723975950004 0.45696262752
11 4 1 0.5564 13.45992 2.53177395247 1.42294839696
12 4 1 0.5564 13.459933459919998 3.347761540735 0.12096757728
13 5 2 -1.1128 17.94588251736 2.4367723975950004 0.45696262752
14 5 1 0.5564 17.94586905744 2.53177395247 1.42294839696
15 5 1 0.5564 17.94588251736 3.347761540735 0.12096757728
16 6 2 -1.1128 22.43285452872 2.4367723975950004 0.45696262752
17 6 1 0.5564 22.432867988639998 2.53177395247 1.42294839696
18 6 1 0.5564 22.43285452872 3.347761540735 0.12096757728
19 7 2 -1.1128 -2.2429879886400004 6.321951323110001 0.45696262752
20 7 1 0.5564 -2.24297452872 6.417978661645001 1.42294839696
21 7 1 0.5564 -2.2429879886400004 7.232940466250001 0.12096757728
22 8 2 -1.1128 2.2429879886399995 6.321951323110001 0.45696262752
23 8 1 0.5564 2.24297452872 6.417978661645001 1.42294839696
24 8 1 0.5564 2.2429879886399995 7.232940466250001 0.12096757728
25 9 2 -1.1128 6.729960000000001 6.321951323110001 0.45696262752
26 9 1 0.5564 6.72994654008 6.417978661645001 1.42294839696
27 9 1 0.5564 6.729960000000001 7.232940466250001 0.12096757728
28 10 2 -1.1128 11.215935977279997 6.321951323110001 0.45696262752
29 10 1 0.5564 11.215922517360001 6.417978661645001 1.42294839696
30 10 1 0.5564 11.21593597728 7.232940466250001 0.12096757728
31 11 2 -1.1128 15.702907988639998 6.321951323110001 0.45696262752
32 11 1 0.5564 15.702894528720002 6.417978661645001 1.42294839696
33 11 1 0.5564 15.70290798864 7.232940466250001 0.12096757728
34 12 2 -1.1128 20.189880000000002 6.321951323110001 0.45696262752
35 12 1 0.5564 20.18986654008 6.417978661645001 1.42294839696
36 12 1 0.5564 20.18988 7.232940466250001 0.12096757728
37 13 2 -1.1128 -4.486985471280001 10.207130248625 0.45696262752
38 13 1 0.5564 -4.4869989312000005 10.303157587160001 1.42294839696
39 13 1 0.5564 -4.486985471280001 11.118119391765001 0.12096757728
40 14 2 -1.1128 1.3459919999432558e-05 10.207130248625 0.45696262752
41 14 1 0.5564 3.245943560159503e-17 10.303157587160001 1.42294839696
42 14 1 0.5564 1.3459919999433123e-05 11.118119391765001 0.12096757728
43 15 2 -1.1128 4.48698547128 10.207130248625 0.45696262752
44 15 1 0.5564 4.486972011360001 10.303157587160001 1.42294839696
45 15 1 0.5564 4.48698547128 11.118119391765001 0.12096757728
46 16 2 -1.1128 8.97293452872 10.207130248625 0.45696262752
47 16 1 0.5564 8.972947988640001 10.303157587160001 1.42294839696
48 16 1 0.5564 8.972934528720002 11.118119391765001 0.12096757728
49 17 2 -1.1128 13.459933459920002 10.207130248625 0.45696262752
50 17 1 0.5564 13.45992 10.303157587160001 1.42294839696
51 17 1 0.5564 13.45993345992 11.118119391765001 0.12096757728
52 18 2 -1.1128 17.945882517359998 10.207130248625 0.45696262752
53 18 1 0.5564 17.94586905744 10.303157587160001 1.42294839696
54 18 1 0.5564 17.945882517359998 11.118119391765001 0.12096757728
55 19 2 -1.1128 -6.729959999999999 14.0933349578 0.45696262752
56 19 1 0.5564 -6.72997345992 14.188336512675 1.42294839696
57 19 1 0.5564 -6.729959999999999 15.00432410094 0.12096757728
58 20 2 -1.1128 -2.2429879886399995 14.0933349578 0.45696262752
59 20 1 0.5564 -2.24297452872 14.188336512675 1.42294839696
60 20 1 0.5564 -2.2429879886399995 15.00432410094 0.12096757728
61 21 2 -1.1128 2.2429879886400013 14.0933349578 0.45696262752
62 21 1 0.5564 2.24297452872 14.188336512675 1.42294839696
63 21 1 0.5564 2.2429879886400013 15.00432410094 0.12096757728
64 22 2 -1.1128 6.72996 14.0933349578 0.45696262752
65 22 1 0.5564 6.729946540080001 14.188336512675 1.42294839696
66 22 1 0.5564 6.729960000000002 15.00432410094 0.12096757728
67 23 2 -1.1128 11.215935977280001 14.0933349578 0.45696262752
68 23 1 0.5564 11.21592251736 14.188336512675 1.42294839696
69 23 1 0.5564 11.21593597728 15.00432410094 0.12096757728
70 24 2 -1.1128 15.70290798864 14.0933349578 0.45696262752
71 24 1 0.5564 15.702894528720002 14.188336512675 1.42294839696
72 24 1 0.5564 15.702907988640002 15.00432410094 0.12096757728
73 25 2 -1.1128 -8.972934528720002 17.978513883315003 0.45696262752
74 25 1 0.5564 -8.97293452872 18.074517908585 1.42294839696
75 25 1 0.5564 -8.972934528720002 18.889503026455003 0.12096757728
76 26 2 -1.1128 -4.4869854712800015 17.978513883315003 0.45696262752
77 26 1 0.5564 -4.486985471280001 18.074517908585 1.42294839696
78 26 1 0.5564 -4.4869854712800015 18.889503026455003 0.12096757728
79 27 2 -1.1128 1.3459919998969018e-05 17.978513883315003 0.45696262752
80 27 1 0.5564 1.3459919999955967e-05 18.074517908585 1.42294839696
81 27 1 0.5564 1.3459919998969582e-05 18.889503026455003 0.12096757728
82 28 2 -1.1128 4.48698547128 17.978513883315003 0.45696262752
83 28 1 0.5564 4.486985471280001 18.074517908585 1.42294839696
84 28 1 0.5564 4.486985471279998 18.889503026455003 0.12096757728
85 29 2 -1.1128 8.972934528720002 17.978513883315003 0.45696262752
86 29 1 0.5564 8.972934528719998 18.074517908585 1.42294839696
87 29 1 0.5564 8.97293452872 18.889503026455003 0.12096757728
88 30 2 -1.1128 13.459933459919997 17.978513883315003 0.45696262752
89 30 1 0.5564 13.45993345992 18.074517908585 1.42294839696
90 30 1 0.5564 13.459933459919998 18.889503026455003 0.12096757728
91 31 2 -1.1128 -11.21693201136 21.863692808830002 0.45696262752
92 31 1 0.5564 -11.21694547128 21.959720147365 1.42294839696
93 31 1 0.5564 -11.21693201136 22.774681951970003 0.12096757728
94 32 2 -1.1128 -6.729960000000001 21.863692808830002 0.45696262752
95 32 1 0.5564 -6.729973459920001 21.959720147365 1.42294839696
96 32 1 0.5564 -6.729960000000001 22.774681951970003 0.12096757728
97 33 2 -1.1128 -2.2429879886400017 21.863692808830002 0.45696262752
98 33 1 0.5564 -2.2429745287200014 21.959720147365 1.42294839696
99 33 1 0.5564 -2.2429879886400017 22.774681951970003 0.12096757728
100 34 2 -1.1128 2.2429879886399973 21.863692808830002 0.45696262752
101 34 1 0.5564 2.2429745287199996 21.959720147365 1.42294839696
102 34 1 0.5564 2.242987988639999 22.774681951970003 0.12096757728
103 35 2 -1.1128 6.7299599999999975 21.863692808830002 0.45696262752
104 35 1 0.5564 6.72994654008 21.959720147365 1.42294839696
105 35 1 0.5564 6.729959999999999 22.774681951970003 0.12096757728
106 36 2 -1.1128 11.215935977280001 21.863692808830002 0.45696262752
107 36 1 0.5564 11.21592251736 21.959720147365 1.42294839696
108 36 1 0.5564 11.21593597728 22.774681951970003 0.12096757728
109 37 2 -1.1128 1.345992000007391e-05 2.4367723975950004 7.769359082159999
110 37 1 0.5564 -9.963147832081631e-17 2.53177395247 8.735344851599999
111 37 1 0.5564 1.3459920000074474e-05 3.347761540735 7.433364031919999
112 38 2 -1.1128 4.48698547128 2.4367723975950004 7.769359082159999
113 38 1 0.5564 4.48697201136 2.53177395247 8.735344851599999
114 38 1 0.5564 4.48698547128 3.347761540735 7.433364031919999
115 39 2 -1.1128 8.972934528719998 2.4367723975950004 7.769359082159999
116 39 1 0.5564 8.972947988640001 2.53177395247 8.735344851599999
117 39 1 0.5564 8.972934528719998 3.347761540735 7.433364031919999
118 40 2 -1.1128 13.45993345992 2.4367723975950004 7.769359082159999
119 40 1 0.5564 13.45992 2.53177395247 8.735344851599999
120 40 1 0.5564 13.459933459919998 3.347761540735 7.433364031919999
121 41 2 -1.1128 17.94588251736 2.4367723975950004 7.769359082159999
122 41 1 0.5564 17.94586905744 2.53177395247 8.735344851599999
123 41 1 0.5564 17.94588251736 3.347761540735 7.433364031919999
124 42 2 -1.1128 22.43285452872 2.4367723975950004 7.769359082159999
125 42 1 0.5564 22.432867988639998 2.53177395247 8.735344851599999
126 42 1 0.5564 22.43285452872 3.347761540735 7.433364031919999
127 43 2 -1.1128 -2.2429879886400004 6.321951323110001 7.769359082159999
128 43 1 0.5564 -2.24297452872 6.417978661645001 8.735344851599999
129 43 1 0.5564 -2.2429879886400004 7.232940466250001 7.433364031919999
130 44 2 -1.1128 2.2429879886399995 6.321951323110001 7.769359082159999
131 44 1 0.5564 2.24297452872 6.417978661645001 8.735344851599999
132 44 1 0.5564 2.2429879886399995 7.232940466250001 7.433364031919999
133 45 2 -1.1128 6.729960000000001 6.321951323110001 7.769359082159999
134 45 1 0.5564 6.72994654008 6.417978661645001 8.735344851599999
135 45 1 0.5564 6.729960000000001 7.232940466250001 7.433364031919999
136 46 2 -1.1128 11.215935977279997 6.321951323110001 7.769359082159999
137 46 1 0.5564 11.215922517360001 6.417978661645001 8.735344851599999
138 46 1 0.5564 11.21593597728 7.232940466250001 7.433364031919999
139 47 2 -1.1128 15.702907988639998 6.321951323110001 7.769359082159999
140 47 1 0.5564 15.702894528720002 6.417978661645001 8.735344851599999
141 47 1 0.5564 15.70290798864 7.232940466250001 7.433364031919999
142 48 2 -1.1128 20.189880000000002 6.321951323110001 7.769359082159999
143 48 1 0.5564 20.18986654008 6.417978661645001 8.735344851599999
144 48 1 0.5564 20.18988 7.232940466250001 7.433364031919999
145 49 2 -1.1128 -4.486985471280001 10.207130248625 7.769359082159999
146 49 1 0.5564 -4.4869989312000005 10.303157587160001 8.735344851599999
147 49 1 0.5564 -4.486985471280001 11.118119391765001 7.433364031919999
148 50 2 -1.1128 1.3459919999432558e-05 10.207130248625 7.769359082159999
149 50 1 0.5564 3.245943560159503e-17 10.303157587160001 8.735344851599999
150 50 1 0.5564 1.3459919999433123e-05 11.118119391765001 7.433364031919999
151 51 2 -1.1128 4.48698547128 10.207130248625 7.769359082159999
152 51 1 0.5564 4.486972011360001 10.303157587160001 8.735344851599999
153 51 1 0.5564 4.48698547128 11.118119391765001 7.433364031919999
154 52 2 -1.1128 8.97293452872 10.207130248625 7.769359082159999
155 52 1 0.5564 8.972947988640001 10.303157587160001 8.735344851599999
156 52 1 0.5564 8.972934528720002 11.118119391765001 7.433364031919999
157 53 2 -1.1128 13.459933459920002 10.207130248625 7.769359082159999
158 53 1 0.5564 13.45992 10.303157587160001 8.735344851599999
159 53 1 0.5564 13.45993345992 11.118119391765001 7.433364031919999
160 54 2 -1.1128 17.945882517359998 10.207130248625 7.769359082159999
161 54 1 0.5564 17.94586905744 10.303157587160001 8.735344851599999
162 54 1 0.5564 17.945882517359998 11.118119391765001 7.433364031919999
163 55 2 -1.1128 -6.729959999999999 14.0933349578 7.769359082159999
164 55 1 0.5564 -6.72997345992 14.188336512675 8.735344851599999
165 55 1 0.5564 -6.729959999999999 15.00432410094 7.433364031919999
166 56 2 -1.1128 -2.2429879886399995 14.0933349578 7.769359082159999
167 56 1 0.5564 -2.24297452872 14.188336512675 8.735344851599999
168 56 1 0.5564 -2.2429879886399995 15.00432410094 7.433364031919999
169 57 2 -1.1128 2.2429879886400013 14.0933349578 7.769359082159999
170 57 1 0.5564 2.24297452872 14.188336512675 8.735344851599999
171 57 1 0.5564 2.2429879886400013 15.00432410094 7.433364031919999
172 58 2 -1.1128 6.72996 14.0933349578 7.769359082159999
173 58 1 0.5564 6.729946540080001 14.188336512675 8.735344851599999
174 58 1 0.5564 6.729960000000002 15.00432410094 7.433364031919999
175 59 2 -1.1128 11.215935977280001 14.0933349578 7.769359082159999
176 59 1 0.5564 11.21592251736 14.188336512675 8.735344851599999
177 59 1 0.5564 11.21593597728 15.00432410094 7.433364031919999
178 60 2 -1.1128 15.70290798864 14.0933349578 7.769359082159999
179 60 1 0.5564 15.702894528720002 14.188336512675 8.735344851599999
180 60 1 0.5564 15.702907988640002 15.00432410094 7.433364031919999
181 61 2 -1.1128 -8.972934528720002 17.978513883315003 7.769359082159999
182 61 1 0.5564 -8.97293452872 18.074517908585 8.735344851599999
183 61 1 0.5564 -8.972934528720002 18.889503026455003 7.433364031919999
184 62 2 -1.1128 -4.4869854712800015 17.978513883315003 7.769359082159999
185 62 1 0.5564 -4.486985471280001 18.074517908585 8.735344851599999
186 62 1 0.5564 -4.4869854712800015 18.889503026455003 7.433364031919999
187 63 2 -1.1128 1.3459919998969018e-05 17.978513883315003 7.769359082159999
188 63 1 0.5564 1.3459919999955967e-05 18.074517908585 8.735344851599999
189 63 1 0.5564 1.3459919998969582e-05 18.889503026455003 7.433364031919999
190 64 2 -1.1128 4.48698547128 17.978513883315003 7.769359082159999
191 64 1 0.5564 4.486985471280001 18.074517908585 8.735344851599999
192 64 1 0.5564 4.486985471279998 18.889503026455003 7.433364031919999
193 65 2 -1.1128 8.972934528720002 17.978513883315003 7.769359082159999
194 65 1 0.5564 8.972934528719998 18.074517908585 8.735344851599999
195 65 1 0.5564 8.97293452872 18.889503026455003 7.433364031919999
196 66 2 -1.1128 13.459933459919997 17.978513883315003 7.769359082159999
197 66 1 0.5564 13.45993345992 18.074517908585 8.735344851599999
198 66 1 0.5564 13.459933459919998 18.889503026455003 7.433364031919999
199 67 2 -1.1128 -11.21693201136 21.863692808830002 7.769359082159999
200 67 1 0.5564 -11.21694547128 21.959720147365 8.735344851599999
201 67 1 0.5564 -11.21693201136 22.774681951970003 7.433364031919999
202 68 2 -1.1128 -6.729960000000001 21.863692808830002 7.769359082159999
203 68 1 0.5564 -6.729973459920001 21.959720147365 8.735344851599999
204 68 1 0.5564 -6.729960000000001 22.774681951970003 7.433364031919999
205 69 2 -1.1128 -2.2429879886400017 21.863692808830002 7.769359082159999
206 69 1 0.5564 -2.2429745287200014 21.959720147365 8.735344851599999
207 69 1 0.5564 -2.2429879886400017 22.774681951970003 7.433364031919999
208 70 2 -1.1128 2.2429879886399973 21.863692808830002 7.769359082159999
209 70 1 0.5564 2.2429745287199996 21.959720147365 8.735344851599999
210 70 1 0.5564 2.242987988639999 22.774681951970003 7.433364031919999
211 71 2 -1.1128 6.7299599999999975 21.863692808830002 7.769359082159999
212 71 1 0.5564 6.72994654008 21.959720147365 8.735344851599999
213 71 1 0.5564 6.729959999999999 22.774681951970003 7.433364031919999
214 72 2 -1.1128 11.215935977280001 21.863692808830002 7.769359082159999
215 72 1 0.5564 11.21592251736 21.959720147365 8.735344851599999
216 72 1 0.5564 11.21593597728 22.774681951970003 7.433364031919999
217 73 2 -1.1128 1.345992000007391e-05 2.4367723975950004 15.08070262752
218 73 1 0.5564 -9.963147832081631e-17 2.53177395247 16.046746891919998
219 73 1 0.5564 1.3459920000074474e-05 3.347761540735 14.74470757728
220 74 2 -1.1128 4.48698547128 2.4367723975950004 15.08070262752
221 74 1 0.5564 4.48697201136 2.53177395247 16.046746891919998
222 74 1 0.5564 4.48698547128 3.347761540735 14.74470757728
223 75 2 -1.1128 8.972934528719998 2.4367723975950004 15.08070262752
224 75 1 0.5564 8.972947988640001 2.53177395247 16.046746891919998
225 75 1 0.5564 8.972934528719998 3.347761540735 14.74470757728
226 76 2 -1.1128 13.45993345992 2.4367723975950004 15.08070262752
227 76 1 0.5564 13.45992 2.53177395247 16.046746891919998
228 76 1 0.5564 13.459933459919998 3.347761540735 14.74470757728
229 77 2 -1.1128 17.94588251736 2.4367723975950004 15.08070262752
230 77 1 0.5564 17.94586905744 2.53177395247 16.046746891919998
231 77 1 0.5564 17.94588251736 3.347761540735 14.74470757728
232 78 2 -1.1128 22.43285452872 2.4367723975950004 15.08070262752
233 78 1 0.5564 22.432867988639998 2.53177395247 16.046746891919998
234 78 1 0.5564 22.43285452872 3.347761540735 14.74470757728
235 79 2 -1.1128 -2.2429879886400004 6.321951323110001 15.08070262752
236 79 1 0.5564 -2.24297452872 6.417978661645001 16.046746891919998
237 79 1 0.5564 -2.2429879886400004 7.232940466250001 14.74470757728
238 80 2 -1.1128 2.2429879886399995 6.321951323110001 15.08070262752
239 80 1 0.5564 2.24297452872 6.417978661645001 16.046746891919998
240 80 1 0.5564 2.2429879886399995 7.232940466250001 14.74470757728
241 81 2 -1.1128 6.729960000000001 6.321951323110001 15.08070262752
242 81 1 0.5564 6.72994654008 6.417978661645001 16.046746891919998
243 81 1 0.5564 6.729960000000001 7.232940466250001 14.74470757728
244 82 2 -1.1128 11.215935977279997 6.321951323110001 15.08070262752
245 82 1 0.5564 11.215922517360001 6.417978661645001 16.046746891919998
246 82 1 0.5564 11.21593597728 7.232940466250001 14.74470757728
247 83 2 -1.1128 15.702907988639998 6.321951323110001 15.08070262752
248 83 1 0.5564 15.702894528720002 6.417978661645001 16.046746891919998
249 83 1 0.5564 15.70290798864 7.232940466250001 14.74470757728
250 84 2 -1.1128 20.189880000000002 6.321951323110001 15.08070262752
251 84 1 0.5564 20.18986654008 6.417978661645001 16.046746891919998
252 84 1 0.5564 20.18988 7.232940466250001 14.74470757728
253 85 2 -1.1128 -4.486985471280001 10.207130248625 15.08070262752
254 85 1 0.5564 -4.4869989312000005 10.303157587160001 16.046746891919998
255 85 1 0.5564 -4.486985471280001 11.118119391765001 14.74470757728
256 86 2 -1.1128 1.3459919999432558e-05 10.207130248625 15.08070262752
257 86 1 0.5564 3.245943560159503e-17 10.303157587160001 16.046746891919998
258 86 1 0.5564 1.3459919999433123e-05 11.118119391765001 14.74470757728
259 87 2 -1.1128 4.48698547128 10.207130248625 15.08070262752
260 87 1 0.5564 4.486972011360001 10.303157587160001 16.046746891919998
261 87 1 0.5564 4.48698547128 11.118119391765001 14.74470757728
262 88 2 -1.1128 8.97293452872 10.207130248625 15.08070262752
263 88 1 0.5564 8.972947988640001 10.303157587160001 16.046746891919998
264 88 1 0.5564 8.972934528720002 11.118119391765001 14.74470757728
265 89 2 -1.1128 13.459933459920002 10.207130248625 15.08070262752
266 89 1 0.5564 13.45992 10.303157587160001 16.046746891919998
267 89 1 0.5564 13.45993345992 11.118119391765001 14.74470757728
268 90 2 -1.1128 17.945882517359998 10.207130248625 15.08070262752
269 90 1 0.5564 17.94586905744 10.303157587160001 16.046746891919998
270 90 1 0.5564 17.945882517359998 11.118119391765001 14.74470757728
271 91 2 -1.1128 -6.729959999999999 14.0933349578 15.08070262752
272 91 1 0.5564 -6.72997345992 14.188336512675 16.046746891919998
273 91 1 0.5564 -6.729959999999999 15.00432410094 14.74470757728
274 92 2 -1.1128 -2.2429879886399995 14.0933349578 15.08070262752
275 92 1 0.5564 -2.24297452872 14.188336512675 16.046746891919998
276 92 1 0.5564 -2.2429879886399995 15.00432410094 14.74470757728
277 93 2 -1.1128 2.2429879886400013 14.0933349578 15.08070262752
278 93 1 0.5564 2.24297452872 14.188336512675 16.046746891919998
279 93 1 0.5564 2.2429879886400013 15.00432410094 14.74470757728
280 94 2 -1.1128 6.72996 14.0933349578 15.08070262752
281 94 1 0.5564 6.729946540080001 14.188336512675 16.046746891919998
282 94 1 0.5564 6.729960000000002 15.00432410094 14.74470757728
283 95 2 -1.1128 11.215935977280001 14.0933349578 15.08070262752
284 95 1 0.5564 11.21592251736 14.188336512675 16.046746891919998
285 95 1 0.5564 11.21593597728 15.00432410094 14.74470757728
286 96 2 -1.1128 15.70290798864 14.0933349578 15.08070262752
287 96 1 0.5564 15.702894528720002 14.188336512675 16.046746891919998
288 96 1 0.5564 15.702907988640002 15.00432410094 14.74470757728
289 97 2 -1.1128 -8.972934528720002 17.978513883315003 15.08070262752
290 97 1 0.5564 -8.97293452872 18.074517908585 16.046746891919998
291 97 1 0.5564 -8.972934528720002 18.889503026455003 14.74470757728
292 98 2 -1.1128 -4.4869854712800015 17.978513883315003 15.08070262752
293 98 1 0.5564 -4.486985471280001 18.074517908585 16.046746891919998
294 98 1 0.5564 -4.4869854712800015 18.889503026455003 14.74470757728
295 99 2 -1.1128 1.3459919998969018e-05 17.978513883315003 15.08070262752
296 99 1 0.5564 1.3459919999955967e-05 18.074517908585 16.046746891919998
297 99 1 0.5564 1.3459919998969582e-05 18.889503026455003 14.74470757728
298 100 2 -1.1128 4.48698547128 17.978513883315003 15.08070262752
299 100 1 0.5564 4.486985471280001 18.074517908585 16.046746891919998
300 100 1 0.5564 4.486985471279998 18.889503026455003 14.74470757728
301 101 2 -1.1128 8.972934528720002 17.978513883315003 15.08070262752
302 101 1 0.5564 8.972934528719998 18.074517908585 16.046746891919998
303 101 1 0.5564 8.97293452872 18.889503026455003 14.74470757728
304 102 2 -1.1128 13.459933459919997 17.978513883315003 15.08070262752
305 102 1 0.5564 13.45993345992 18.074517908585 16.046746891919998
306 102 1 0.5564 13.459933459919998 18.889503026455003 14.74470757728
307 103 2 -1.1128 -11.21693201136 21.863692808830002 15.08070262752
308 103 1 0.5564 -11.21694547128 21.959720147365 16.046746891919998
309 103 1 0.5564 -11.21693201136 22.774681951970003 14.74470757728
310 104 2 -1.1128 -6.729960000000001 21.863692808830002 15.08070262752
311 104 1 0.5564 -6.729973459920001 21.959720147365 16.046746891919998
312 104 1 0.5564 -6.729960000000001 22.774681951970003 14.74470757728
313 105 2 -1.1128 -2.2429879886400017 21.863692808830002 15.08070262752
314 105 1 0.5564 -2.2429745287200014 21.959720147365 16.046746891919998
315 105 1 0.5564 -2.2429879886400017 22.774681951970003 14.74470757728
316 106 2 -1.1128 2.2429879886399973 21.863692808830002 15.08070262752
317 106 1 0.5564 2.2429745287199996 21.959720147365 16.046746891919998
318 106 1 0.5564 2.242987988639999 22.774681951970003 14.74470757728
319 107 2 -1.1128 6.7299599999999975 21.863692808830002 15.08070262752
320 107 1 0.5564 6.72994654008 21.959720147365 16.046746891919998
321 107 1 0.5564 6.729959999999999 22.774681951970003 14.74470757728
322 108 2 -1.1128 11.215935977280001 21.863692808830002 15.08070262752
323 108 1 0.5564 11.21592251736 21.959720147365 16.046746891919998
324 108 1 0.5564 11.21593597728 22.774681951970003 14.74470757728
325 109 2 -1.1128 1.345992000007391e-05 2.4367723975950004 22.393099082160003
326 109 1 0.5564 -9.963147832081631e-17 2.53177395247 23.3590848516
327 109 1 0.5564 1.3459920000074474e-05 3.347761540735 22.057104031919998
328 110 2 -1.1128 4.48698547128 2.4367723975950004 22.393099082160003
329 110 1 0.5564 4.48697201136 2.53177395247 23.3590848516
330 110 1 0.5564 4.48698547128 3.347761540735 22.057104031919998
331 111 2 -1.1128 8.972934528719998 2.4367723975950004 22.393099082160003
332 111 1 0.5564 8.972947988640001 2.53177395247 23.3590848516
333 111 1 0.5564 8.972934528719998 3.347761540735 22.057104031919998
334 112 2 -1.1128 13.45993345992 2.4367723975950004 22.393099082160003
335 112 1 0.5564 13.45992 2.53177395247 23.3590848516
336 112 1 0.5564 13.459933459919998 3.347761540735 22.057104031919998
337 113 2 -1.1128 17.94588251736 2.4367723975950004 22.393099082160003
338 113 1 0.5564 17.94586905744 2.53177395247 23.3590848516
339 113 1 0.5564 17.94588251736 3.347761540735 22.057104031919998
340 114 2 -1.1128 22.43285452872 2.4367723975950004 22.393099082160003
341 114 1 0.5564 22.432867988639998 2.53177395247 23.3590848516
342 114 1 0.5564 22.43285452872 3.347761540735 22.057104031919998
343 115 2 -1.1128 -2.2429879886400004 6.321951323110001 22.393099082160003
344 115 1 0.5564 -2.24297452872 6.417978661645001 23.3590848516
345 115 1 0.5564 -2.2429879886400004 7.232940466250001 22.057104031919998
346 116 2 -1.1128 2.2429879886399995 6.321951323110001 22.393099082160003
347 116 1 0.5564 2.24297452872 6.417978661645001 23.3590848516
348 116 1 0.5564 2.2429879886399995 7.232940466250001 22.057104031919998
349 117 2 -1.1128 6.729960000000001 6.321951323110001 22.393099082160003
350 117 1 0.5564 6.72994654008 6.417978661645001 23.3590848516
351 117 1 0.5564 6.729960000000001 7.232940466250001 22.057104031919998
352 118 2 -1.1128 11.215935977279997 6.321951323110001 22.393099082160003
353 118 1 0.5564 11.215922517360001 6.417978661645001 23.3590848516
354 118 1 0.5564 11.21593597728 7.232940466250001 22.057104031919998
355 119 2 -1.1128 15.702907988639998 6.321951323110001 22.393099082160003
356 119 1 0.5564 15.702894528720002 6.417978661645001 23.3590848516
357 119 1 0.5564 15.70290798864 7.232940466250001 22.057104031919998
358 120 2 -1.1128 20.189880000000002 6.321951323110001 22.393099082160003
359 120 1 0.5564 20.18986654008 6.417978661645001 23.3590848516
360 120 1 0.5564 20.18988 7.232940466250001 22.057104031919998
361 121 2 -1.1128 -4.486985471280001 10.207130248625 22.393099082160003
362 121 1 0.5564 -4.4869989312000005 10.303157587160001 23.3590848516
363 121 1 0.5564 -4.486985471280001 11.118119391765001 22.057104031919998
364 122 2 -1.1128 1.3459919999432558e-05 10.207130248625 22.393099082160003
365 122 1 0.5564 3.245943560159503e-17 10.303157587160001 23.3590848516
366 122 1 0.5564 1.3459919999433123e-05 11.118119391765001 22.057104031919998
367 123 2 -1.1128 4.48698547128 10.207130248625 22.393099082160003
368 123 1 0.5564 4.486972011360001 10.303157587160001 23.3590848516
369 123 1 0.5564 4.48698547128 11.118119391765001 22.057104031919998
370 124 2 -1.1128 8.97293452872 10.207130248625 22.393099082160003
371 124 1 0.5564 8.972947988640001 10.303157587160001 23.3590848516
372 124 1 0.5564 8.972934528720002 11.118119391765001 22.057104031919998
373 125 2 -1.1128 13.459933459920002 10.207130248625 22.393099082160003
374 125 1 0.5564 13.45992 10.303157587160001 23.3590848516
375 125 1 0.5564 13.45993345992 11.118119391765001 22.057104031919998
376 126 2 -1.1128 17.945882517359998 10.207130248625 22.393099082160003
377 126 1 0.5564 17.94586905744 10.303157587160001 23.3590848516
378 126 1 0.5564 17.945882517359998 11.118119391765001 22.057104031919998
379 127 2 -1.1128 -6.729959999999999 14.0933349578 22.393099082160003
380 127 1 0.5564 -6.72997345992 14.188336512675 23.3590848516
381 127 1 0.5564 -6.729959999999999 15.00432410094 22.057104031919998
382 128 2 -1.1128 -2.2429879886399995 14.0933349578 22.393099082160003
383 128 1 0.5564 -2.24297452872 14.188336512675 23.3590848516
384 128 1 0.5564 -2.2429879886399995 15.00432410094 22.057104031919998
385 129 2 -1.1128 2.2429879886400013 14.0933349578 22.393099082160003
386 129 1 0.5564 2.24297452872 14.188336512675 23.3590848516
387 129 1 0.5564 2.2429879886400013 15.00432410094 22.057104031919998
388 130 2 -1.1128 6.72996 14.0933349578 22.393099082160003
389 130 1 0.5564 6.729946540080001 14.188336512675 23.3590848516
390 130 1 0.5564 6.729960000000002 15.00432410094 22.057104031919998
391 131 2 -1.1128 11.215935977280001 14.0933349578 22.393099082160003
392 131 1 0.5564 11.21592251736 14.188336512675 23.3590848516
393 131 1 0.5564 11.21593597728 15.00432410094 22.057104031919998
394 132 2 -1.1128 15.70290798864 14.0933349578 22.393099082160003
395 132 1 0.5564 15.702894528720002 14.188336512675 23.3590848516
396 132 1 0.5564 15.702907988640002 15.00432410094 22.057104031919998
397 133 2 -1.1128 -8.972934528720002 17.978513883315003 22.393099082160003
398 133 1 0.5564 -8.97293452872 18.074517908585 23.3590848516
399 133 1 0.5564 -8.972934528720002 18.889503026455003 22.057104031919998
400 134 2 -1.1128 -4.4869854712800015 17.978513883315003 22.393099082160003
401 134 1 0.5564 -4.486985471280001 18.074517908585 23.3590848516
402 134 1 0.5564 -4.4869854712800015 18.889503026455003 22.057104031919998
403 135 2 -1.1128 1.3459919998969018e-05 17.978513883315003 22.393099082160003
404 135 1 0.5564 1.3459919999955967e-05 18.074517908585 23.3590848516
405 135 1 0.5564 1.3459919998969582e-05 18.889503026455003 22.057104031919998
406 136 2 -1.1128 4.48698547128 17.978513883315003 22.393099082160003
407 136 1 0.5564 4.486985471280001 18.074517908585 23.3590848516
408 136 1 0.5564 4.486985471279998 18.889503026455003 22.057104031919998
409 137 2 -1.1128 8.972934528720002 17.978513883315003 22.393099082160003
410 137 1 0.5564 8.972934528719998 18.074517908585 23.3590848516
411 137 1 0.5564 8.97293452872 18.889503026455003 22.057104031919998
412 138 2 -1.1128 13.459933459919997 17.978513883315003 22.393099082160003
413 138 1 0.5564 13.45993345992 18.074517908585 23.3590848516
414 138 1 0.5564 13.459933459919998 18.889503026455003 22.057104031919998
415 139 2 -1.1128 -11.21693201136 21.863692808830002 22.393099082160003
416 139 1 0.5564 -11.21694547128 21.959720147365 23.3590848516
417 139 1 0.5564 -11.21693201136 22.774681951970003 22.057104031919998
418 140 2 -1.1128 -6.729960000000001 21.863692808830002 22.393099082160003
419 140 1 0.5564 -6.729973459920001 21.959720147365 23.3590848516
420 140 1 0.5564 -6.729960000000001 22.774681951970003 22.057104031919998
421 141 2 -1.1128 -2.2429879886400017 21.863692808830002 22.393099082160003
422 141 1 0.5564 -2.2429745287200014 21.959720147365 23.3590848516
423 141 1 0.5564 -2.2429879886400017 22.774681951970003 22.057104031919998
424 142 2 -1.1128 2.2429879886399973 21.863692808830002 22.393099082160003
425 142 1 0.5564 2.2429745287199996 21.959720147365 23.3590848516
426 142 1 0.5564 2.242987988639999 22.774681951970003 22.057104031919998
427 143 2 -1.1128 6.7299599999999975 21.863692808830002 22.393099082160003
428 143 1 0.5564 6.72994654008 21.959720147365 23.3590848516
429 143 1 0.5564 6.729959999999999 22.774681951970003 22.057104031919998
430 144 2 -1.1128 11.215935977280001 21.863692808830002 22.393099082160003
431 144 1 0.5564 11.21592251736 21.959720147365 23.3590848516
432 144 1 0.5564 11.21593597728 22.774681951970003 22.057104031919998
433 145 2 -1.1128 1.345992000007391e-05 2.4367723975950004 29.705437041839996
434 145 1 0.5564 -9.963147832081631e-17 2.53177395247 30.67042839696
435 145 1 0.5564 1.3459920000074474e-05 3.347761540735 29.368447577279998
436 146 2 -1.1128 4.48698547128 2.4367723975950004 29.705437041839996
437 146 1 0.5564 4.48697201136 2.53177395247 30.67042839696
438 146 1 0.5564 4.48698547128 3.347761540735 29.368447577279998
439 147 2 -1.1128 8.972934528719998 2.4367723975950004 29.705437041839996
440 147 1 0.5564 8.972947988640001 2.53177395247 30.67042839696
441 147 1 0.5564 8.972934528719998 3.347761540735 29.368447577279998