LAMMPS data. description

2592 atoms
1728 bonds
864 angles

2 atom types
1 bond types
1 angle types

0.0 26.91984 xlo xhi
0.0 23.313265 ylo yhi
0.0 43.87122 zlo zhi
-13.45992 0.0 0.0 xy xz yz

Atoms

1 1 2 -1.1128 1.345992000007391e-05 2.4367723975950004 0.45696262752
2 1 1 0.5564 -9.963147832081631e-17 2.53177395247 1.42291914948
3 1 1 0.5564 1.3459920000074474e-05 3.347761540735 0.12095295354
4 2 2 -1.1128 4.48698547128 2.4367723975950004 0.45696262752
5 2 1 0.5564 4.48697201136 2.53177395247 1.42291914948
6 2 1 0.5564 4.48698547128 3.347761540735 0.12095295354
7 3 2 -1.1128 8.972934528719998 2.4367723975950004 0.45696262752
8 3 1 0.5564 8.972947988640001 2.53177395247 1.42291914948
9 3 1 0.5564 8.972934528719998 3.347761540735 0.12095295354
10 4 2 -1.1128 13.45993345992 2.4367723975950004 0.45696262752
11 4 1 0.5564 13.45992 2.53177395247 1.42291914948
12 4 1 0.5564 13.459933459919998 3.347761540735 0.12095295354
13 5 2 -1.1128 17.94588251736 2.4367723975950004 0.45696262752
14 5 1 0.5564 17.94586905744 2.53177395247 1.42291914948
15 5 1 0.5564 17.94588251736 3.347761540735 0.12095295354
16 6 2 -1.1128 22.43285452872 2.4367723975950004 0.45696262752
17 6 1 0.5564 22.432867988639998 2.53177395247 1.42291914948
18 6 1 0.5564 22.43285452872 3.347761540735 0.12095295354
19 7 2 -1.1128 -2.2429879886400004 6.321951323110001 0.45696262752
20 7 1 0.5564 -2.24297452872 6.417978661645001 1.42291914948
21 7 1 0.5564 -2.2429879886400004 7.232940466250001 0.12095295354
22 8 2 -1.1128 2.2429879886399995 6.321951323110001 0.45696262752
23 8 1 0.5564 2.24297452872 6.417978661645001 1.42291914948
24 8 1 0.5564 2.2429879886399995 7.232940466250001 0.12095295354
25 9 2 -1.1128 6.729960000000001 6.321951323110001 0.45696262752
26 9 1 0.5564 6.72994654008 6.417978661645001 1.42291914948
27 9 1 0.5564 6.729960000000001 7.232940466250001 0.12095295354
28 10 2 -1.1128 11.215935977279997 6.321951323110001 0.45696262752
29 10 1 0.5564 11.215922517360001 6.417978661645001 1.42291914948
30 10 1 0.5564 11.21593597728 7.232940466250001 0.12095295354
31 11 2 -1.1128 15.702907988639998 6.321951323110001 0.45696262752
32 11 1 0.5564 15.702894528720002 6.417978661645001 1.42291914948
33 11 1 0.5564 15.70290798864 7.232940466250001 0.12095295354
34 12 2 -1.1128 20.189880000000002 6.321951323110001 0.45696262752
35 12 1 0.5564 20.18986654008 6.417978661645001 1.42291914948
36 12 1 0.5564 20.18988 7.232940466250001 0.12095295354
37 13 2 -1.1128 -4.486985471280001 10.207130248625 0.45696262752
38 13 1 0.5564 -4.4869989312000005 10.303157587160001 1.42291914948
39 13 1 0.5564 -4.486985471280001 11.118119391765001 0.12095295354
40 14 2 -1.1128 1.3459919999432558e-05 10.207130248625 0.45696262752
41 14 1 0.5564 3.245943560159503e-17 10.303157587160001 1.42291914948
42 14 1 0.5564 1.3459919999433123e-05 11.118119391765001 0.12095295354
43 15 2 -1.1128 4.48698547128 10.207130248625 0.45696262752
44 15 1 0.5564 4.486972011360001 10.303157587160001 1.42291914948
45 15 1 0.5564 4.48698547128 11.118119391765001 0.12095295354
46 16 2 -1.1128 8.97293452872 10.207130248625 0.45696262752
47 16 1 0.5564 8.972947988640001 10.303157587160001 1.42291914948
48 16 1 0.5564 8.972934528720002 11.118119391765001 0.12095295354
49 17 2 -1.1128 13.459933459920002 10.207130248625 0.45696262752
50 17 1 0.5564 13.45992 10.303157587160001 1.42291914948
51 17 1 0.5564 13.45993345992 11.118119391765001 0.12095295354
52 18 2 -1.1128 17.945882517359998 10.207130248625 0.45696262752
53 18 1 0.5564 17.94586905744 10.303157587160001 1.42291914948
54 18 1 0.5564 17.945882517359998 11.118119391765001 0.12095295354
55 19 2 -1.1128 -6.729959999999999 14.0933349578 0.45696262752
56 19 1 0.5564 -6.72997345992 14.188336512675 1.42291914948
57 19 1 0.5564 -6.729959999999999 15.00432410094 0.12095295354
58 20 2 -1.1128 -2.2429879886399995 14.0933349578 0.45696262752
59 20 1 0.5564 -2.24297452872 14.188336512675 1.42291914948
60 20 1 0.5564 -2.2429879886399995 15.00432410094 0.12095295354
61 21 2 -1.1128 2.2429879886400013 14.0933349578 0.45696262752
62 21 1 0.5564 2.24297452872 14.188336512675 1.42291914948
63 21 1 0.5564 2.2429879886400013 15.00432410094 0.12095295354
64 22 2 -1.1128 6.72996 14.0933349578 0.45696262752
65 22 1 0.5564 6.729946540080001 14.188336512675 1.42291914948
66 22 1 0.5564 6.729960000000002 15.00432410094 0.12095295354
67 23 2 -1.1128 11.215935977280001 14.0933349578 0.45696262752
68 23 1 0.5564 11.21592251736 14.188336512675 1.42291914948
69 23 1 0.5564 11.21593597728 15.00432410094 0.12095295354
70 24 2 -1.1128 15.70290798864 14.0933349578 0.45696262752
71 24 1 0.5564 15.702894528720002 14.188336512675 1.42291914948
72 24 1 0.5564 15.702907988640002 15.00432410094 0.12095295354
73 25 2 -1.1128 -8.972934528720002 17.978513883315003 0.45696262752
74 25 1 0.5564 -8.97293452872 18.074517908585 1.42291914948
75 25 1 0.5564 -8.972934528720002 18.889503026455003 0.12095295354
76 26 2 -1.1128 -4.4869854712800015 17.978513883315003 0.45696262752
77 26 1 0.5564 -4.486985471280001 18.074517908585 1.42291914948
78 26 1 0.5564 -4.4869854712800015 18.889503026455003 0.12095295354
79 27 2 -1.1128 1.3459919998969018e-05 17.978513883315003 0.45696262752
80 27 1 0.5564 1.3459919999955967e-05 18.074517908585 1.42291914948
81 27 1 0.5564 1.3459919998969582e-05 18.889503026455003 0.12095295354
82 28 2 -1.1128 4.48698547128 17.978513883315003 0.45696262752
83 28 1 0.5564 4.486985471280001 18.074517908585 1.42291914948
84 28 1 0.5564 4.486985471279998 18.889503026455003 0.12095295354
85 29 2 -1.1128 8.972934528720002 17.978513883315003 0.45696262752
86 29 1 0.5564 8.972934528719998 18.074517908585 1.42291914948
87 29 1 0.5564 8.97293452872 18.889503026455003 0.12095295354
88 30 2 -1.1128 13.459933459919997 17.978513883315003 0.45696262752
89 30 1 0.5564 13.45993345992 18.074517908585 1.42291914948
90 30 1 0.5564 13.459933459919998 18.889503026455003 0.12095295354
91 31 2 -1.1128 -11.21693201136 21.863692808830002 0.45696262752
92 31 1 0.5564 -11.21694547128 21.959720147365 1.42291914948
93 31 1 0.5564 -11.21693201136 22.774681951970003 0.12095295354
94 32 2 -1.1128 -6.729960000000001 21.863692808830002 0.45696262752
95 32 1 0.5564 -6.729973459920001 21.959720147365 1.42291914948
96 32 1 0.5564 -6.729960000000001 22.774681951970003 0.12095295354
97 33 2 -1.1128 -2.2429879886400017 21.863692808830002 0.45696262752
98 33 1 0.5564 -2.2429745287200014 21.959720147365 1.42291914948
99 33 1 0.5564 -2.2429879886400017 22.774681951970003 0.12095295354
100 34 2 -1.1128 2.2429879886399973 21.863692808830002 0.45696262752
101 34 1 0.5564 2.2429745287199996 21.959720147365 1.42291914948
102 34 1 0.5564 2.242987988639999 22.774681951970003 0.12095295354
103 35 2 -1.1128 6.7299599999999975 21.863692808830002 0.45696262752
104 35 1 0.5564 6.72994654008 21.959720147365 1.42291914948
105 35 1 0.5564 6.729959999999999 22.774681951970003 0.12095295354
106 36 2 -1.1128 11.215935977280001 21.863692808830002 0.45696262752
107 36 1 0.5564 11.21592251736 21.959720147365 1.42291914948
108 36 1 0.5564 11.21593597728 22.774681951970003 0.12095295354
109 37 2 -1.1128 1.345992000007391e-05 2.4367723975950004 7.7693737059000005
110 37 1 0.5564 -9.963147832081631e-17 2.53177395247 8.73533022786
111 37 1 0.5564 1.3459920000074474e-05 3.347761540735 7.43336403192
112 38 2 -1.1128 4.48698547128 2.4367723975950004 7.7693737059000005
113 38 1 0.5564 4.48697201136 2.53177395247 8.73533022786
114 38 1 0.5564 4.48698547128 3.347761540735 7.43336403192
115 39 2 -1.1128 8.972934528719998 2.4367723975950004 7.7693737059000005
116 39 1 0.5564 8.972947988640001 2.53177395247 8.73533022786
117 39 1 0.5564 8.972934528719998 3.347761540735 7.43336403192
118 40 2 -1.1128 13.45993345992 2.4367723975950004 7.7693737059000005
119 40 1 0.5564 13.45992 2.53177395247 8.73533022786
120 40 1 0.5564 13.459933459919998 3.347761540735 7.43336403192
121 41 2 -1.1128 17.94588251736 2.4367723975950004 7.7693737059000005
122 41 1 0.5564 17.94586905744 2.53177395247 8.73533022786
123 41 1 0.5564 17.94588251736 3.347761540735 7.43336403192
124 42 2 -1.1128 22.43285452872 2.4367723975950004 7.7693737059000005
125 42 1 0.5564 22.432867988639998 2.53177395247 8.73533022786
126 42 1 0.5564 22.43285452872 3.347761540735 7.43336403192
127 43 2 -1.1128 -2.2429879886400004 6.321951323110001 7.7693737059000005
128 43 1 0.5564 -2.24297452872 6.417978661645001 8.73533022786
129 43 1 0.5564 -2.2429879886400004 7.232940466250001 7.43336403192
130 44 2 -1.1128 2.2429879886399995 6.321951323110001 7.7693737059000005
131 44 1 0.5564 2.24297452872 6.417978661645001 8.73533022786
132 44 1 0.5564 2.2429879886399995 7.232940466250001 7.43336403192
133 45 2 -1.1128 6.729960000000001 6.321951323110001 7.7693737059000005
134 45 1 0.5564 6.72994654008 6.417978661645001 8.73533022786
135 45 1 0.5564 6.729960000000001 7.232940466250001 7.43336403192
136 46 2 -1.1128 11.215935977279997 6.321951323110001 7.7693737059000005
137 46 1 0.5564 11.215922517360001 6.417978661645001 8.73533022786
138 46 1 0.5564 11.21593597728 7.232940466250001 7.43336403192
139 47 2 -1.1128 15.702907988639998 6.321951323110001 7.7693737059000005
140 47 1 0.5564 15.702894528720002 6.417978661645001 8.73533022786
141 47 1 0.5564 15.70290798864 7.232940466250001 7.43336403192
142 48 2 -1.1128 20.189880000000002 6.321951323110001 7.7693737059000005
143 48 1 0.5564 20.18986654008 6.417978661645001 8.73533022786
144 48 1 0.5564 20.18988 7.232940466250001 7.43336403192
145 49 2 -1.1128 -4.486985471280001 10.207130248625 7.7693737059000005
146 49 1 0.5564 -4.4869989312000005 10.303157587160001 8.73533022786
147 49 1 0.5564 -4.486985471280001 11.118119391765001 7.43336403192
148 50 2 -1.1128 1.3459919999432558e-05 10.207130248625 7.7693737059000005
149 50 1 0.5564 3.245943560159503e-17 10.303157587160001 8.73533022786
150 50 1 0.5564 1.3459919999433123e-05 11.118119391765001 7.43336403192
151 51 2 -1.1128 4.48698547128 10.207130248625 7.7693737059000005
152 51 1 0.5564 4.486972011360001 10.303157587160001 8.73533022786
153 51 1 0.5564 4.48698547128 11.118119391765001 7.43336403192
154 52 2 -1.1128 8.97293452872 10.207130248625 7.7693737059000005
155 52 1 0.5564 8.972947988640001 10.303157587160001 8.73533022786
156 52 1 0.5564 8.972934528720002 11.118119391765001 7.43336403192
157 53 2 -1.1128 13.459933459920002 10.207130248625 7.7693737059000005
158 53 1 0.5564 13.45992 10.303157587160001 8.73533022786
159 53 1 0.5564 13.45993345992 11.118119391765001 7.43336403192
160 54 2 -1.1128 17.945882517359998 10.207130248625 7.7693737059000005
161 54 1 0.5564 17.94586905744 10.303157587160001 8.73533022786
162 54 1 0.5564 17.945882517359998 11.118119391765001 7.43336403192
163 55 2 -1.1128 -6.729959999999999 14.0933349578 7.7693737059000005
164 55 1 0.5564 -6.72997345992 14.188336512675 8.73533022786
165 55 1 0.5564 -6.729959999999999 15.00432410094 7.43336403192
166 56 2 -1.1128 -2.2429879886399995 14.0933349578 7.7693737059000005
167 56 1 0.5564 -2.24297452872 14.188336512675 8.73533022786
168 56 1 0.5564 -2.2429879886399995 15.00432410094 7.43336403192
169 57 2 -1.1128 2.2429879886400013 14.0933349578 7.7693737059000005
170 57 1 0.5564 2.24297452872 14.188336512675 8.73533022786
171 57 1 0.5564 2.2429879886400013 15.00432410094 7.43336403192
172 58 2 -1.1128 6.72996 14.0933349578 7.7693737059000005
173 58 1 0.5564 6.729946540080001 14.188336512675 8.73533022786
174 58 1 0.5564 6.729960000000002 15.00432410094 7.43336403192
175 59 2 -1.1128 11.215935977280001 14.0933349578 7.7693737059000005
176 59 1 0.5564 11.21592251736 14.188336512675 8.73533022786
177 59 1 0.5564 11.21593597728 15.00432410094 7.43336403192
178 60 2 -1.1128 15.70290798864 14.0933349578 7.7693737059000005
179 60 1 0.5564 15.702894528720002 14.188336512675 8.73533022786
180 60 1 0.5564 15.702907988640002 15.00432410094 7.43336403192
181 61 2 -1.1128 -8.972934528720002 17.978513883315003 7.7693737059000005
182 61 1 0.5564 -8.97293452872 18.074517908585 8.73533022786
183 61 1 0.5564 -8.972934528720002 18.889503026455003 7.43336403192
184 62 2 -1.1128 -4.4869854712800015 17.978513883315003 7.7693737059000005
185 62 1 0.5564 -4.486985471280001 18.074517908585 8.73533022786
186 62 1 0.5564 -4.4869854712800015 18.889503026455003 7.43336403192
187 63 2 -1.1128 1.3459919998969018e-05 17.978513883315003 7.7693737059000005
188 63 1 0.5564 1.3459919999955967e-05 18.074517908585 8.73533022786
189 63 1 0.5564 1.3459919998969582e-05 18.889503026455003 7.43336403192
190 64 2 -1.1128 4.48698547128 17.978513883315003 7.7693737059000005
191 64 1 0.5564 4.486985471280001 18.074517908585 8.73533022786
192 64 1 0.5564 4.486985471279998 18.889503026455003 7.43336403192
193 65 2 -1.1128 8.972934528720002 17.978513883315003 7.7693737059000005
194 65 1 0.5564 8.972934528719998 18.074517908585 8.73533022786
195 65 1 0.5564 8.97293452872 18.889503026455003 7.43336403192
196 66 2 -1.1128 13.459933459919997 17.978513883315003 7.7693737059000005
197 66 1 0.5564 13.45993345992 18.074517908585 8.73533022786
198 66 1 0.5564 13.459933459919998 18.889503026455003 7.43336403192
199 67 2 -1.1128 -11.21693201136 21.863692808830002 7.7693737059000005
200 67 1 0.5564 -11.21694547128 21.959720147365 8.73533022786
201 67 1 0.5564 -11.21693201136 22.774681951970003 7.43336403192
202 68 2 -1.1128 -6.729960000000001 21.863692808830002 7.7693737059000005
203 68 1 0.5564 -6.729973459920001 21.959720147365 8.73533022786
204 68 1 0.5564 -6.729960000000001 22.774681951970003 7.43336403192
205 69 2 -1.1128 -2.2429879886400017 21.863692808830002 7.7693737059000005
206 69 1 0.5564 -2.2429745287200014 21.959720147365 8.73533022786
207 69 1 0.5564 -2.2429879886400017 22.774681951970003 7.43336403192
208 70 2 -1.1128 2.2429879886399973 21.863692808830002 7.7693737059000005
209 70 1 0.5564 2.2429745287199996 21.959720147365 8.73533022786
210 70 1 0.5564 2.242987988639999 22.774681951970003 7.43336403192
211 71 2 -1.1128 6.7299599999999975 21.863692808830002 7.7693737059000005
212 71 1 0.5564 6.72994654008 21.959720147365 8.73533022786
213 71 1 0.5564 6.729959999999999 22.774681951970003 7.43336403192
214 72 2 -1.1128 11.215935977280001 21.863692808830002 7.7693737059000005
215 72 1 0.5564 11.21592251736 21.959720147365 8.73533022786
216 72 1 0.5564 11.21593597728 22.774681951970003 7.43336403192
217 73 2 -1.1128 1.345992000007391e-05 2.4367723975950004 15.08068800378
218 73 1 0.5564 -9.963147832081631e-17 2.53177395247 16.04673226818
219 73 1 0.5564 1.3459920000074474e-05 3.347761540735 14.744722201019998
220 74 2 -1.1128 4.48698547128 2.4367723975950004 15.08068800378
221 74 1 0.5564 4.48697201136 2.53177395247 16.04673226818
222 74 1 0.5564 4.48698547128 3.347761540735 14.744722201019998
223 75 2 -1.1128 8.972934528719998 2.4367723975950004 15.08068800378
224 75 1 0.5564 8.972947988640001 2.53177395247 16.04673226818
225 75 1 0.5564 8.972934528719998 3.347761540735 14.744722201019998
226 76 2 -1.1128 13.45993345992 2.4367723975950004 15.08068800378
227 76 1 0.5564 13.45992 2.53177395247 16.04673226818
228 76 1 0.5564 13.459933459919998 3.347761540735 14.744722201019998
229 77 2 -1.1128 17.94588251736 2.4367723975950004 15.08068800378
230 77 1 0.5564 17.94586905744 2.53177395247 16.04673226818
231 77 1 0.5564 17.94588251736 3.347761540735 14.744722201019998
232 78 2 -1.1128 22.43285452872 2.4367723975950004 15.08068800378
233 78 1 0.5564 22.432867988639998 2.53177395247 16.04673226818
234 78 1 0.5564 22.43285452872 3.347761540735 14.744722201019998
235 79 2 -1.1128 -2.2429879886400004 6.321951323110001 15.08068800378
236 79 1 0.5564 -2.24297452872 6.417978661645001 16.04673226818
237 79 1 0.5564 -2.2429879886400004 7.232940466250001 14.744722201019998
238 80 2 -1.1128 2.2429879886399995 6.321951323110001 15.08068800378
239 80 1 0.5564 2.24297452872 6.417978661645001 16.04673226818
240 80 1 0.5564 2.2429879886399995 7.232940466250001 14.744722201019998
241 81 2 -1.1128 6.729960000000001 6.321951323110001 15.08068800378
242 81 1 0.5564 6.72994654008 6.417978661645001 16.04673226818
243 81 1 0.5564 6.729960000000001 7.232940466250001 14.744722201019998
244 82 2 -1.1128 11.215935977279997 6.321951323110001 15.08068800378
245 82 1 0.5564 11.215922517360001 6.417978661645001 16.04673226818
246 82 1 0.5564 11.21593597728 7.232940466250001 14.744722201019998
247 83 2 -1.1128 15.702907988639998 6.321951323110001 15.08068800378
248 83 1 0.5564 15.702894528720002 6.417978661645001 16.04673226818
249 83 1 0.5564 15.70290798864 7.232940466250001 14.744722201019998
250 84 2 -1.1128 20.189880000000002 6.321951323110001 15.08068800378
251 84 1 0.5564 20.18986654008 6.417978661645001 16.04673226818
252 84 1 0.5564 20.18988 7.232940466250001 14.744722201019998
253 85 2 -1.1128 -4.486985471280001 10.207130248625 15.08068800378
254 85 1 0.5564 -4.4869989312000005 10.303157587160001 16.04673226818
255 85 1 0.5564 -4.486985471280001 11.118119391765001 14.744722201019998
256 86 2 -1.1128 1.3459919999432558e-05 10.207130248625 15.08068800378
257 86 1 0.5564 3.245943560159503e-17 10.303157587160001 16.04673226818
258 86 1 0.5564 1.3459919999433123e-05 11.118119391765001 14.744722201019998
259 87 2 -1.1128 4.48698547128 10.207130248625 15.08068800378
260 87 1 0.5564 4.486972011360001 10.303157587160001 16.04673226818
261 87 1 0.5564 4.48698547128 11.118119391765001 14.744722201019998
262 88 2 -1.1128 8.97293452872 10.207130248625 15.08068800378
263 88 1 0.5564 8.972947988640001 10.303157587160001 16.04673226818
264 88 1 0.5564 8.972934528720002 11.118119391765001 14.744722201019998
265 89 2 -1.1128 13.459933459920002 10.207130248625 15.08068800378
266 89 1 0.5564 13.45992 10.303157587160001 16.04673226818
267 89 1 0.5564 13.45993345992 11.118119391765001 14.744722201019998
268 90 2 -1.1128 17.945882517359998 10.207130248625 15.08068800378
269 90 1 0.5564 17.94586905744 10.303157587160001 16.04673226818
270 90 1 0.5564 17.945882517359998 11.118119391765001 14.744722201019998
271 91 2 -1.1128 -6.729959999999999 14.0933349578 15.08068800378
272 91 1 0.5564 -6.72997345992 14.188336512675 16.04673226818
273 91 1 0.5564 -6.729959999999999 15.00432410094 14.744722201019998
274 92 2 -1.1128 -2.2429879886399995 14.0933349578 15.08068800378
275 92 1 0.5564 -2.24297452872 14.188336512675 16.04673226818
276 92 1 0.5564 -2.2429879886399995 15.00432410094 14.744722201019998
277 93 2 -1.1128 2.2429879886400013 14.0933349578 15.08068800378
278 93 1 0.5564 2.24297452872 14.188336512675 16.04673226818
279 93 1 0.5564 2.2429879886400013 15.00432410094 14.744722201019998
280 94 2 -1.1128 6.72996 14.0933349578 15.08068800378
281 94 1 0.5564 6.729946540080001 14.188336512675 16.04673226818
282 94 1 0.5564 6.729960000000002 15.00432410094 14.744722201019998
283 95 2 -1.1128 11.215935977280001 14.0933349578 15.08068800378
284 95 1 0.5564 11.21592251736 14.188336512675 16.04673226818
285 95 1 0.5564 11.21593597728 15.00432410094 14.744722201019998
286 96 2 -1.1128 15.70290798864 14.0933349578 15.08068800378
287 96 1 0.5564 15.702894528720002 14.188336512675 16.04673226818
288 96 1 0.5564 15.702907988640002 15.00432410094 14.744722201019998
289 97 2 -1.1128 -8.972934528720002 17.978513883315003 15.08068800378
290 97 1 0.5564 -8.97293452872 18.074517908585 16.04673226818
291 97 1 0.5564 -8.972934528720002 18.889503026455003 14.744722201019998
292 98 2 -1.1128 -4.4869854712800015 17.978513883315003 15.08068800378
293 98 1 0.5564 -4.486985471280001 18.074517908585 16.04673226818
294 98 1 0.5564 -4.4869854712800015 18.889503026455003 14.744722201019998
295 99 2 -1.1128 1.3459919998969018e-05 17.978513883315003 15.08068800378
296 99 1 0.5564 1.3459919999955967e-05 18.074517908585 16.04673226818
297 99 1 0.5564 1.3459919998969582e-05 18.889503026455003 14.744722201019998
298 100 2 -1.1128 4.48698547128 17.978513883315003 15.08068800378
299 100 1 0.5564 4.486985471280001 18.074517908585 16.04673226818
300 100 1 0.5564 4.486985471279998 18.889503026455003 14.744722201019998
301 101 2 -1.1128 8.972934528720002 17.978513883315003 15.08068800378
302 101 1 0.5564 8.972934528719998 18.074517908585 16.04673226818
303 101 1 0.5564 8.97293452872 18.889503026455003 14.744722201019998
304 102 2 -1.1128 13.459933459919997 17.978513883315003 15.08068800378
305 102 1 0.5564 13.45993345992 18.074517908585 16.04673226818
306 102 1 0.5564 13.459933459919998 18.889503026455003 14.744722201019998
307 103 2 -1.1128 -11.21693201136 21.863692808830002 15.08068800378
308 103 1 0.5564 -11.21694547128 21.959720147365 16.04673226818
309 103 1 0.5564 -11.21693201136 22.774681951970003 14.744722201019998
310 104 2 -1.1128 -6.729960000000001 21.863692808830002 15.08068800378
311 104 1 0.5564 -6.729973459920001 21.959720147365 16.04673226818
312 104 1 0.5564 -6.729960000000001 22.774681951970003 14.744722201019998
313 105 2 -1.1128 -2.2429879886400017 21.863692808830002 15.08068800378
314 105 1 0.5564 -2.2429745287200014 21.959720147365 16.04673226818
315 105 1 0.5564 -2.2429879886400017 22.774681951970003 14.744722201019998
316 106 2 -1.1128 2.2429879886399973 21.863692808830002 15.08068800378
317 106 1 0.5564 2.2429745287199996 21.959720147365 16.04673226818
318 106 1 0.5564 2.242987988639999 22.774681951970003 14.744722201019998
319 107 2 -1.1128 6.7299599999999975 21.863692808830002 15.08068800378
320 107 1 0.5564 6.72994654008 21.959720147365 16.04673226818
321 107 1 0.5564 6.729959999999999 22.774681951970003 14.744722201019998
322 108 2 -1.1128 11.215935977280001 21.863692808830002 15.08068800378
323 108 1 0.5564 11.21592251736 21.959720147365 16.04673226818
324 108 1 0.5564 11.21593597728 22.774681951970003 14.744722201019998
325 109 2 -1.1128 1.345992000007391e-05 2.4367723975950004 22.39309908216
326 109 1 0.5564 -9.963147832081631e-17 2.53177395247 23.359055604119998
327 109 1 0.5564 1.3459920000074474e-05 3.347761540735 22.05708940818
328 110 2 -1.1128 4.48698547128 2.4367723975950004 22.39309908216
329 110 1 0.5564 4.48697201136 2.53177395247 23.359055604119998
330 110 1 0.5564 4.48698547128 3.347761540735 22.05708940818
331 111 2 -1.1128 8.972934528719998 2.4367723975950004 22.39309908216
332 111 1 0.5564 8.972947988640001 2.53177395247 23.359055604119998
333 111 1 0.5564 8.972934528719998 3.347761540735 22.05708940818
334 112 2 -1.1128 13.45993345992 2.4367723975950004 22.39309908216
335 112 1 0.5564 13.45992 2.53177395247 23.359055604119998
336 112 1 0.5564 13.459933459919998 3.347761540735 22.05708940818
337 113 2 -1.1128 17.94588251736 2.4367723975950004 22.39309908216
338 113 1 0.5564 17.94586905744 2.53177395247 23.359055604119998
339 113 1 0.5564 17.94588251736 3.347761540735 22.05708940818
340 114 2 -1.1128 22.43285452872 2.4367723975950004 22.39309908216
341 114 1 0.5564 22.432867988639998 2.53177395247 23.359055604119998
342 114 1 0.5564 22.43285452872 3.347761540735 22.05708940818
343 115 2 -1.1128 -2.2429879886400004 6.321951323110001 22.39309908216
344 115 1 0.5564 -2.24297452872 6.417978661645001 23.359055604119998
345 115 1 0.5564 -2.2429879886400004 7.232940466250001 22.05708940818
346 116 2 -1.1128 2.2429879886399995 6.321951323110001 22.39309908216
347 116 1 0.5564 2.24297452872 6.417978661645001 23.359055604119998
348 116 1 0.5564 2.2429879886399995 7.232940466250001 22.05708940818
349 117 2 -1.1128 6.729960000000001 6.321951323110001 22.39309908216
350 117 1 0.5564 6.72994654008 6.417978661645001 23.359055604119998
351 117 1 0.5564 6.729960000000001 7.232940466250001 22.05708940818
352 118 2 -1.1128 11.215935977279997 6.321951323110001 22.39309908216
353 118 1 0.5564 11.215922517360001 6.417978661645001 23.359055604119998
354 118 1 0.5564 11.21593597728 7.232940466250001 22.05708940818
355 119 2 -1.1128 15.702907988639998 6.321951323110001 22.39309908216
356 119 1 0.5564 15.702894528720002 6.417978661645001 23.359055604119998
357 119 1 0.5564 15.70290798864 7.232940466250001 22.05708940818
358 120 2 -1.1128 20.189880000000002 6.321951323110001 22.39309908216
359 120 1 0.5564 20.18986654008 6.417978661645001 23.359055604119998
360 120 1 0.5564 20.18988 7.232940466250001 22.05708940818
361 121 2 -1.1128 -4.486985471280001 10.207130248625 22.39309908216
362 121 1 0.5564 -4.4869989312000005 10.303157587160001 23.359055604119998
363 121 1 0.5564 -4.486985471280001 11.118119391765001 22.05708940818
364 122 2 -1.1128 1.3459919999432558e-05 10.207130248625 22.39309908216
365 122 1 0.5564 3.245943560159503e-17 10.303157587160001 23.359055604119998
366 122 1 0.5564 1.3459919999433123e-05 11.118119391765001 22.05708940818
367 123 2 -1.1128 4.48698547128 10.207130248625 22.39309908216
368 123 1 0.5564 4.486972011360001 10.303157587160001 23.359055604119998
369 123 1 0.5564 4.48698547128 11.118119391765001 22.05708940818
370 124 2 -1.1128 8.97293452872 10.207130248625 22.39309908216
371 124 1 0.5564 8.972947988640001 10.303157587160001 23.359055604119998
372 124 1 0.5564 8.972934528720002 11.118119391765001 22.05708940818
373 125 2 -1.1128 13.459933459920002 10.207130248625 22.39309908216
374 125 1 0.5564 13.45992 10.303157587160001 23.359055604119998
375 125 1 0.5564 13.45993345992 11.118119391765001 22.05708940818
376 126 2 -1.1128 17.945882517359998 10.207130248625 22.39309908216
377 126 1 0.5564 17.94586905744 10.303157587160001 23.359055604119998
378 126 1 0.5564 17.945882517359998 11.118119391765001 22.05708940818
379 127 2 -1.1128 -6.729959999999999 14.0933349578 22.39309908216
380 127 1 0.5564 -6.72997345992 14.188336512675 23.359055604119998
381 127 1 0.5564 -6.729959999999999 15.00432410094 22.05708940818
382 128 2 -1.1128 -2.2429879886399995 14.0933349578 22.39309908216
383 128 1 0.5564 -2.24297452872 14.188336512675 23.359055604119998
384 128 1 0.5564 -2.2429879886399995 15.00432410094 22.05708940818
385 129 2 -1.1128 2.2429879886400013 14.0933349578 22.39309908216
386 129 1 0.5564 2.24297452872 14.188336512675 23.359055604119998
387 129 1 0.5564 2.2429879886400013 15.00432410094 22.05708940818
388 130 2 -1.1128 6.72996 14.0933349578 22.39309908216
389 130 1 0.5564 6.729946540080001 14.188336512675 23.359055604119998
390 130 1 0.5564 6.729960000000002 15.00432410094 22.05708940818
391 131 2 -1.1128 11.215935977280001 14.0933349578 22.39309908216
392 131 1 0.5564 11.21592251736 14.188336512675 23.359055604119998
393 131 1 0.5564 11.21593597728 15.00432410094 22.05708940818
394 132 2 -1.1128 15.70290798864 14.0933349578 22.39309908216
395 132 1 0.5564 15.702894528720002 14.188336512675 23.359055604119998
396 132 1 0.5564 15.702907988640002 15.00432410094 22.05708940818
397 133 2 -1.1128 -8.972934528720002 17.978513883315003 22.39309908216
398 133 1 0.5564 -8.97293452872 18.074517908585 23.359055604119998
399 133 1 0.5564 -8.972934528720002 18.889503026455003 22.05708940818
400 134 2 -1.1128 -4.4869854712800015 17.978513883315003 22.39309908216
401 134 1 0.5564 -4.486985471280001 18.074517908585 23.359055604119998
402 134 1 0.5564 -4.4869854712800015 18.889503026455003 22.05708940818
403 135 2 -1.1128 1.3459919998969018e-05 17.978513883315003 22.39309908216
404 135 1 0.5564 1.3459919999955967e-05 18.074517908585 23.359055604119998
405 135 1 0.5564 1.3459919998969582e-05 18.889503026455003 22.05708940818
406 136 2 -1.1128 4.48698547128 17.978513883315003 22.39309908216
407 136 1 0.5564 4.486985471280001 18.074517908585 23.359055604119998
408 136 1 0.5564 4.486985471279998 18.889503026455003 22.05708940818
409 137 2 -1.1128 8.972934528720002 17.978513883315003 22.39309908216
410 137 1 0.5564 8.972934528719998 18.074517908585 23.359055604119998
411 137 1 0.5564 8.97293452872 18.889503026455003 22.05708940818
412 138 2 -1.1128 13.459933459919997 17.978513883315003 22.39309908216
413 138 1 0.5564 13.45993345992 18.074517908585 23.359055604119998
414 138 1 0.5564 13.459933459919998 18.889503026455003 22.05708940818
415 139 2 -1.1128 -11.21693201136 21.863692808830002 22.39309908216
416 139 1 0.5564 -11.21694547128 21.959720147365 23.359055604119998
417 139 1 0.5564 -11.21693201136 22.774681951970003 22.05708940818
418 140 2 -1.1128 -6.729960000000001 21.863692808830002 22.39309908216
419 140 1 0.5564 -6.729973459920001 21.959720147365 23.359055604119998
420 140 1 0.5564 -6.729960000000001 22.774681951970003 22.05708940818
421 141 2 -1.1128 -2.2429879886400017 21.863692808830002 22.39309908216
422 141 1 0.5564 -2.2429745287200014 21.959720147365 23.359055604119998
423 141 1 0.5564 -2.2429879886400017 22.774681951970003 22.05708940818
424 142 2 -1.1128 2.2429879886399973 21.863692808830002 22.39309908216
425 142 1 0.5564 2.2429745287199996 21.959720147365 23.359055604119998
426 142 1 0.5564 2.242987988639999 22.774681951970003 22.05708940818
427 143 2 -1.1128 6.7299599999999975 21.863692808830002 22.39309908216
428 143 1 0.5564 6.72994654008 21.959720147365 23.359055604119998
429 143 1 0.5564 6.729959999999999 22.774681951970003 22.05708940818
430 144 2 -1.1128 11.215935977280001 21.863692808830002 22.39309908216
431 144 1 0.5564 11.21592251736 21.959720147365 23.359055604119998
432 144 1 0.5564 11.21593597728 22.774681951970003 22.05708940818
433 145 2 -1.1128 1.345992000007391e-05 2.4367723975950004 29.7054224181
434 145 1 0.5564 -9.963147832081631e-17 2.53177395247 30.670413773219998
435 145 1 0.5564 1.3459920000074474e-05 3.347761540735 29.36844757728
436 146 2 -1.1128 4.48698547128 2.4367723975950004 29.7054224181
437 146 1 0.5564 4.48697201136 2.53177395247 30.670413773219998
438 146 1 0.5564 4.48698547128 3.347761540735 29.36844757728
439 147 2 -1.1128 8.972934528719998 2.4367723975950004 29.7054224181
440 147 1 0.5564 8.972947988640001 2.53177395247 30.670413773219998
441 147 1 0.5564 8.972934528719998 3.347761540735 29.36844757728
442 148 2 -1.1128 13.45993345992 2.4367723975950004 29.7054224181
443 148 1 0.5564 13.45992 2.53177395247 30.670413773219998
444 148 1 0.5564 13.459933459919998 3.347761540735 29.36844757728
445 149 2 -1.1128 17.94588251736 2.4367723975950004 29.7054224181
446 149 1 0.5564 17.94586905744 2.53177395247 30.670413773219998
447 149 1 0.5564 17.94588251736 3.347761540735 29.36844757728