LAMMPS (09 Jan 2020)
  using 1 OpenMP thread(s) per MPI task
variable seed1 equal 76773
variable seed2 equal 64502
variable nname index ice_Ih666.eq.98

# Initialization
units		real
boundary	p p p
atom_style	full
variable name index ice_Ih666
log 		${name}.txt
log 		ice_Ih666.txt
