ITEM: TIMESTEP
0
ITEM: NUMBER OF ATOMS
24000
ITEM: BOX BOUNDS pp pp pp
0.0000000000000000e+00 8.0000000000000000e+01
0.0000000000000000e+00 8.0000000000000000e+01
0.0000000000000000e+00 8.0000000000000000e+01
ITEM: ATOMS id type xs ys zs
1 2 1.63844e-07 0.0298715 0.00560551
1201 2 1.63844e-07 0.0298715 0.0556055
2401 2 1.63844e-07 0.0298715 0.105606
61 2 1.63844e-07 0.0798715 0.00560551
1261 2 1.63844e-07 0.0798715 0.0556055
2461 2 1.63844e-07 0.0798715 0.105606
4 2 0.0500002 0.0298715 0.00560551
1204 2 0.0500002 0.0298715 0.0556055
2404 2 0.0500002 0.0298715 0.105606
64 2 0.0500002 0.0798715 0.00560551
1264 2 0.0500002 0.0798715 0.0556055
2464 2 0.0500002 0.0798715 0.105606
2 1 2.11329e-09 0.0310538 0.017512
1202 1 2.11329e-09 0.0310538 0.067512
2402 1 2.11329e-09 0.0310538 0.117512
62 1 2.11329e-09 0.0810538 0.017512
1262 1 2.11329e-09 0.0810538 0.067512
2462 1 2.11329e-09 0.0810538 0.117512
5 1 0.05 0.0310538 0.017512
1205 1 0.05 0.0310538 0.067512
2405 1 0.05 0.0310538 0.117512
65 1 0.05 0.0810538 0.017512
1265 1 0.05 0.0810538 0.067512
2465 1 0.05 0.0810538 0.117512
3 1 1.63523e-07 0.0411013 0.00147579
1203 1 1.63523e-07 0.0411013 0.0514758
2403 1 1.63523e-07 0.0411013 0.101476
63 1 1.63523e-07 0.0911013 0.00147579
1263 1 1.63523e-07 0.0911013 0.0514758
2463 1 1.63523e-07 0.0911013 0.101476
6 1 0.0500002 0.0411013 0.00147579
1206 1 0.0500002 0.0411013 0.0514758
2406 1 0.0500002 0.0411013 0.101476
66 1 0.0500002 0.0911013 0.00147579
1266 1 0.0500002 0.0911013 0.0514758
2466 1 0.0500002 0.0911013 0.101476
7 2 0.1 0.0298715 0.00560551
1207 2 0.1 0.0298715 0.0556055
2407 2 0.1 0.0298715 0.105606
67 2 0.1 0.0798715 0.00560551
1267 2 0.1 0.0798715 0.0556055
2467 2 0.1 0.0798715 0.105606
10 2 0.15 0.0298715 0.00560551
1210 2 0.15 0.0298715 0.0556055
2410 2 0.15 0.0298715 0.105606
70 2 0.15 0.0798715 0.00560551
1270 2 0.15 0.0798715 0.0556055
2470 2 0.15 0.0798715 0.105606
8 1 0.1 0.0310538 0.017512
1208 1 0.1 0.0310538 0.067512
2408 1 0.1 0.0310538 0.117512
68 1 0.1 0.0810538 0.017512
1268 1 0.1 0.0810538 0.067512
2468 1 0.1 0.0810538 0.117512
11 1 0.15 0.0310538 0.017512
1211 1 0.15 0.0310538 0.067512
2411 1 0.15 0.0310538 0.117512
71 1 0.15 0.0810538 0.017512
1271 1 0.15 0.0810538 0.067512
2471 1 0.15 0.0810538 0.117512
9 1 0.1 0.0411013 0.00147579
1209 1 0.1 0.0411013 0.0514758
2409 1 0.1 0.0411013 0.101476
69 1 0.1 0.0911013 0.00147579
1269 1 0.1 0.0911013 0.0514758
2469 1 0.1 0.0911013 0.101476
12 1 0.15 0.0411013 0.00147579
1212 1 0.15 0.0411013 0.0514758
2412 1 0.15 0.0411013 0.101476
72 1 0.15 0.0911013 0.00147579
1272 1 0.15 0.0911013 0.0514758
2472 1 0.15 0.0911013 0.101476
13 2 0.2 0.0298715 0.00560551
1213 2 0.2 0.0298715 0.0556055
2413 2 0.2 0.0298715 0.105606
73 2 0.2 0.0798715 0.00560551
1273 2 0.2 0.0798715 0.0556055
2473 2 0.2 0.0798715 0.105606
16 2 0.25 0.0298715 0.00560551
1216 2 0.25 0.0298715 0.0556055
2416 2 0.25 0.0298715 0.105606
76 2 0.25 0.0798715 0.00560551
1276 2 0.25 0.0798715 0.0556055
2476 2 0.25 0.0798715 0.105606
14 1 0.2 0.0310538 0.017512
1214 1 0.2 0.0310538 0.067512
2414 1 0.2 0.0310538 0.117512
74 1 0.2 0.0810538 0.017512
1274 1 0.2 0.0810538 0.067512
2474 1 0.2 0.0810538 0.117512
17 1 0.25 0.0310538 0.017512
1217 1 0.25 0.0310538 0.067512
2417 1 0.25 0.0310538 0.117512
77 1 0.25 0.0810538 0.017512
1277 1 0.25 0.0810538 0.067512
2477 1 0.25 0.0810538 0.117512
15 1 0.2 0.0411013 0.00147579
1215 1 0.2 0.0411013 0.0514758
2415 1 0.2 0.0411013 0.101476
75 1 0.2 0.0911013 0.00147579
1275 1 0.2 0.0911013 0.0514758
2475 1 0.2 0.0911013 0.101476
18 1 0.25 0.0411013 0.00147579
1218 1 0.25 0.0411013 0.0514758
2418 1 0.25 0.0411013 0.101476
78 1 0.25 0.0911013 0.00147579
1278 1 0.25 0.0911013 0.0514758
2478 1 0.25 0.0911013 0.101476
19 2 0.3 0.0298715 0.00560551
1219 2 0.3 0.0298715 0.0556055
2419 2 0.3 0.0298715 0.105606
79 2 0.3 0.0798715 0.00560551
1279 2 0.3 0.0798715 0.0556055
2479 2 0.3 0.0798715 0.105606
22 2 0.35 0.0298715 0.00560551
1222 2 0.35 0.0298715 0.0556055
2422 2 0.35 0.0298715 0.105606
82 2 0.35 0.0798715 0.00560551
1282 2 0.35 0.0798715 0.0556055
2482 2 0.35 0.0798715 0.105606
20 1 0.3 0.0310538 0.017512
1220 1 0.3 0.0310538 0.067512
2420 1 0.3 0.0310538 0.117512
80 1 0.3 0.0810538 0.017512
1280 1 0.3 0.0810538 0.067512
2480 1 0.3 0.0810538 0.117512
23 1 0.35 0.0310538 0.017512
1223 1 0.35 0.0310538 0.067512
2423 1 0.35 0.0310538 0.117512
83 1 0.35 0.0810538 0.017512
1283 1 0.35 0.0810538 0.067512
2483 1 0.35 0.0810538 0.117512
21 1 0.3 0.0411013 0.00147579
1221 1 0.3 0.0411013 0.0514758
2421 1 0.3 0.0411013 0.101476
81 1 0.3 0.0911013 0.00147579
1281 1 0.3 0.0911013 0.0514758
2481 1 0.3 0.0911013 0.101476
24 1 0.35 0.0411013 0.00147579
1224 1 0.35 0.0411013 0.0514758
2424 1 0.35 0.0411013 0.101476
84 1 0.35 0.0911013 0.00147579
1284 1 0.35 0.0911013 0.0514758
2484 1 0.35 0.0911013 0.101476
25 2 0.4 0.0298715 0.00560551
1225 2 0.4 0.0298715 0.0556055
2425 2 0.4 0.0298715 0.105606
85 2 0.4 0.0798715 0.00560551
1285 2 0.4 0.0798715 0.0556055
2485 2 0.4 0.0798715 0.105606
28 2 0.45 0.0298715 0.00560551
1228 2 0.45 0.0298715 0.0556055
2428 2 0.45 0.0298715 0.105606
88 2 0.45 0.0798715 0.00560551
1288 2 0.45 0.0798715 0.0556055
2488 2 0.45 0.0798715 0.105606
26 1 0.4 0.0310538 0.017512
1226 1 0.4 0.0310538 0.067512
2426 1 0.4 0.0310538 0.117512
86 1 0.4 0.0810538 0.017512
1286 1 0.4 0.0810538 0.067512
2486 1 0.4 0.0810538 0.117512
29 1 0.45 0.0310538 0.017512
1229 1 0.45 0.0310538 0.067512
2429 1 0.45 0.0310538 0.117512
89 1 0.45 0.0810538 0.017512
1289 1 0.45 0.0810538 0.067512
2489 1 0.45 0.0810538 0.117512
27 1 0.4 0.0411013 0.00147579
1227 1 0.4 0.0411013 0.0514758
2427 1 0.4 0.0411013 0.101476
87 1 0.4 0.0911013 0.00147579
1287 1 0.4 0.0911013 0.0514758
2487 1 0.4 0.0911013 0.101476
30 1 0.45 0.0411013 0.00147579
1230 1 0.45 0.0411013 0.0514758
2430 1 0.45 0.0411013 0.101476
90 1 0.45 0.0911013 0.00147579
1290 1 0.45 0.0911013 0.0514758
2490 1 0.45 0.0911013 0.101476
121 2 1.63844e-07 0.129872 0.00560551
1321 2 1.63844e-07 0.129872 0.0556055
2521 2 1.63844e-07 0.129872 0.105606
181 2 1.63844e-07 0.179872 0.00560551
1381 2 1.63844e-07 0.179872 0.0556055
2581 2 1.63844e-07 0.179872 0.105606
124 2 0.0500002 0.129872 0.00560551
1324 2 0.0500002 0.129872 0.0556055
2524 2 0.0500002 0.129872 0.105606
184 2 0.0500002 0.179872 0.00560551
1384 2 0.0500002 0.179872 0.0556055
2584 2 0.0500002 0.179872 0.105606
122 1 2.11329e-09 0.131054 0.017512
1322 1 2.11329e-09 0.131054 0.067512
2522 1 2.11329e-09 0.131054 0.117512
182 1 2.11329e-09 0.181054 0.017512
1382 1 2.11329e-09 0.181054 0.067512
2582 1 2.11329e-09 0.181054 0.117512
125 1 0.05 0.131054 0.017512
1325 1 0.05 0.131054 0.067512
2525 1 0.05 0.131054 0.117512
185 1 0.05 0.181054 0.017512
1385 1 0.05 0.181054 0.067512
2585 1 0.05 0.181054 0.117512
123 1 1.63523e-07 0.141101 0.00147579
1323 1 1.63523e-07 0.141101 0.0514758
2523 1 1.63523e-07 0.141101 0.101476
183 1 1.63523e-07 0.191101 0.00147579
1383 1 1.63523e-07 0.191101 0.0514758
2583 1 1.63523e-07 0.191101 0.101476
126 1 0.0500002 0.141101 0.00147579
1326 1 0.0500002 0.141101 0.0514758
2526 1 0.0500002 0.141101 0.101476
186 1 0.0500002 0.191101 0.00147579
1386 1 0.0500002 0.191101 0.0514758
2586 1 0.0500002 0.191101 0.101476
127 2 0.1 0.129872 0.00560551
1327 2 0.1 0.129872 0.0556055
2527 2 0.1 0.129872 0.105606
187 2 0.1 0.179872 0.00560551
1387 2 0.1 0.179872 0.0556055
2587 2 0.1 0.179872 0.105606
130 2 0.15 0.129872 0.00560551
1330 2 0.15 0.129872 0.0556055
2530 2 0.15 0.129872 0.105606
190 2 0.15 0.179872 0.00560551
1390 2 0.15 0.179872 0.0556055
2590 2 0.15 0.179872 0.105606
128 1 0.1 0.131054 0.017512
1328 1 0.1 0.131054 0.067512
2528 1 0.1 0.131054 0.117512
188 1 0.1 0.181054 0.017512
1388 1 0.1 0.181054 0.067512
2588 1 0.1 0.181054 0.117512
131 1 0.15 0.131054 0.017512
1331 1 0.15 0.131054 0.067512
2531 1 0.15 0.131054 0.117512
191 1 0.15 0.181054 0.017512
1391 1 0.15 0.181054 0.067512
2591 1 0.15 0.181054 0.117512
129 1 0.1 0.141101 0.00147579
1329 1 0.1 0.141101 0.0514758
2529 1 0.1 0.141101 0.101476
189 1 0.1 0.191101 0.00147579
1389 1 0.1 0.191101 0.0514758
2589 1 0.1 0.191101 0.101476
132 1 0.15 0.141101 0.00147579
1332 1 0.15 0.141101 0.0514758
2532 1 0.15 0.141101 0.101476
192 1 0.15 0.191101 0.00147579
1392 1 0.15 0.191101 0.0514758
2592 1 0.15 0.191101 0.101476
133 2 0.2 0.129872 0.00560551
1333 2 0.2 0.129872 0.0556055
2533 2 0.2 0.129872 0.105606
193 2 0.2 0.179872 0.00560551
1393 2 0.2 0.179872 0.0556055
2593 2 0.2 0.179872 0.105606
136 2 0.25 0.129872 0.00560551
1336 2 0.25 0.129872 0.0556055
2536 2 0.25 0.129872 0.105606
196 2 0.25 0.179872 0.00560551
1396 2 0.25 0.179872 0.0556055
2596 2 0.25 0.179872 0.105606
134 1 0.2 0.131054 0.017512
1334 1 0.2 0.131054 0.067512
2534 1 0.2 0.131054 0.117512
194 1 0.2 0.181054 0.017512
1394 1 0.2 0.181054 0.067512
2594 1 0.2 0.181054 0.117512
137 1 0.25 0.131054 0.017512
1337 1 0.25 0.131054 0.067512
2537 1 0.25 0.131054 0.117512
197 1 0.25 0.181054 0.017512
1397 1 0.25 0.181054 0.067512
2597 1 0.25 0.181054 0.117512
135 1 0.2 0.141101 0.00147579
1335 1 0.2 0.141101 0.0514758
2535 1 0.2 0.141101 0.101476
195 1 0.2 0.191101 0.00147579
1395 1 0.2 0.191101 0.0514758
2595 1 0.2 0.191101 0.101476
138 1 0.25 0.141101 0.00147579
1338 1 0.25 0.141101 0.0514758
2538 1 0.25 0.141101 0.101476
198 1 0.25 0.191101 0.00147579
1398 1 0.25 0.191101 0.0514758
2598 1 0.25 0.191101 0.101476
139 2 0.3 0.129872 0.00560551
1339 2 0.3 0.129872 0.0556055
2539 2 0.3 0.129872 0.105606
199 2 0.3 0.179872 0.00560551
1399 2 0.3 0.179872 0.0556055
2599 2 0.3 0.179872 0.105606
142 2 0.35 0.129872 0.00560551
1342 2 0.35 0.129872 0.0556055
2542 2 0.35 0.129872 0.105606
202 2 0.35 0.179872 0.00560551
1402 2 0.35 0.179872 0.0556055
2602 2 0.35 0.179872 0.105606
140 1 0.3 0.131054 0.017512
1340 1 0.3 0.131054 0.067512
2540 1 0.3 0.131054 0.117512
200 1 0.3 0.181054 0.017512
1400 1 0.3 0.181054 0.067512
2600 1 0.3 0.181054 0.117512
143 1 0.35 0.131054 0.017512
1343 1 0.35 0.131054 0.067512
2543 1 0.35 0.131054 0.117512
203 1 0.35 0.181054 0.017512
1403 1 0.35 0.181054 0.067512
2603 1 0.35 0.181054 0.117512
141 1 0.3 0.141101 0.00147579
1341 1 0.3 0.141101 0.0514758
2541 1 0.3 0.141101 0.101476
201 1 0.3 0.191101 0.00147579
1401 1 0.3 0.191101 0.0514758
2601 1 0.3 0.191101 0.101476
144 1 0.35 0.141101 0.00147579
1344 1 0.35 0.141101 0.0514758
2544 1 0.35 0.141101 0.101476
204 1 0.35 0.191101 0.00147579
1404 1 0.35 0.191101 0.0514758
2604 1 0.35 0.191101 0.101476
145 2 0.4 0.129872 0.00560551
1345 2 0.4 0.129872 0.0556055
2545 2 0.4 0.129872 0.105606
205 2 0.4 0.179872 0.00560551
1405 2 0.4 0.179872 0.0556055
2605 2 0.4 0.179872 0.105606
148 2 0.45 0.129872 0.00560551
1348 2 0.45 0.129872 0.0556055
2548 2 0.45 0.129872 0.105606
208 2 0.45 0.179872 0.00560551
1408 2 0.45 0.179872 0.0556055
2608 2 0.45 0.179872 0.105606
146 1 0.4 0.131054 0.017512
1346 1 0.4 0.131054 0.067512
2546 1 0.4 0.131054 0.117512
206 1 0.4 0.181054 0.017512
1406 1 0.4 0.181054 0.067512
2606 1 0.4 0.181054 0.117512
149 1 0.45 0.131054 0.017512
1349 1 0.45 0.131054 0.067512
2549 1 0.45 0.131054 0.117512
209 1 0.45 0.181054 0.017512
1409 1 0.45 0.181054 0.067512
2609 1 0.45 0.181054 0.117512
147 1 0.4 0.141101 0.00147579
1347 1 0.4 0.141101 0.0514758
2547 1 0.4 0.141101 0.101476
207 1 0.4 0.191101 0.00147579
1407 1 0.4 0.191101 0.0514758
2607 1 0.4 0.191101 0.101476
150 1 0.45 0.141101 0.00147579
1350 1 0.45 0.141101 0.0514758
2550 1 0.45 0.141101 0.101476
210 1 0.45 0.191101 0.00147579
1410 1 0.45 0.191101 0.0514758
2610 1 0.45 0.191101 0.101476
241 2 1.63844e-07 0.229872 0.00560551
1441 2 1.63844e-07 0.229872 0.0556055
2641 2 1.63844e-07 0.229872 0.105606
301 2 1.63844e-07 0.279872 0.00560551
1501 2 1.63844e-07 0.279872 0.0556055
2701 2 1.63844e-07 0.279872 0.105606
361 2 1.63844e-07 0.329872 0.00560551
1561 2 1.63844e-07 0.329872 0.0556055
2761 2 1.63844e-07 0.329872 0.105606
244 2 0.0500002 0.229872 0.00560551
1444 2 0.0500002 0.229872 0.0556055
2644 2 0.0500002 0.229872 0.105606
304 2 0.0500002 0.279872 0.00560551
1504 2 0.0500002 0.279872 0.0556055
2704 2 0.0500002 0.279872 0.105606
364 2 0.0500002 0.329872 0.00560551
1564 2 0.0500002 0.329872 0.0556055
2764 2 0.0500002 0.329872 0.105606
242 1 2.11329e-09 0.231054 0.017512
1442 1 2.11329e-09 0.231054 0.067512
2642 1 2.11329e-09 0.231054 0.117512
302 1 2.11329e-09 0.281054 0.017512
1502 1 2.11329e-09 0.281054 0.067512
2702 1 2.11329e-09 0.281054 0.117512
362 1 2.11329e-09 0.331054 0.017512
1562 1 2.11329e-09 0.331054 0.067512
2762 1 2.11329e-09 0.331054 0.117512
245 1 0.05 0.231054 0.017512
1445 1 0.05 0.231054 0.067512
2645 1 0.05 0.231054 0.117512
305 1 0.05 0.281054 0.017512
1505 1 0.05 0.281054 0.067512
2705 1 0.05 0.281054 0.117512
365 1 0.05 0.331054 0.017512
1565 1 0.05 0.331054 0.067512
2765 1 0.05 0.331054 0.117512
243 1 1.63523e-07 0.241101 0.00147579
1443 1 1.63523e-07 0.241101 0.0514758
2643 1 1.63523e-07 0.241101 0.101476
303 1 1.63523e-07 0.291101 0.00147579
1503 1 1.63523e-07 0.291101 0.0514758
2703 1 1.63523e-07 0.291101 0.101476
246 1 0.0500002 0.241101 0.00147579
1446 1 0.0500002 0.241101 0.0514758
2646 1 0.0500002 0.241101 0.101476
306 1 0.0500002 0.291101 0.00147579
1506 1 0.0500002 0.291101 0.0514758
2706 1 0.0500002 0.291101 0.101476
247 2 0.1 0.229872 0.00560551
1447 2 0.1 0.229872 0.0556055
2647 2 0.1 0.229872 0.105606
307 2 0.1 0.279872 0.00560551
1507 2 0.1 0.279872 0.0556055
2707 2 0.1 0.279872 0.105606
367 2 0.1 0.329872 0.00560551
1567 2 0.1 0.329872 0.0556055
2767 2 0.1 0.329872 0.105606
250 2 0.15 0.229872 0.00560551
1450 2 0.15 0.229872 0.0556055
2650 2 0.15 0.229872 0.105606
310 2 0.15 0.279872 0.00560551
1510 2 0.15 0.279872 0.0556055
2710 2 0.15 0.279872 0.105606
370 2 0.15 0.329872 0.00560551
1570 2 0.15 0.329872 0.0556055
2770 2 0.15 0.329872 0.105606
248 1 0.1 0.231054 0.017512
1448 1 0.1 0.231054 0.067512
2648 1 0.1 0.231054 0.117512
308 1 0.1 0.281054 0.017512
1508 1 0.1 0.281054 0.067512
2708 1 0.1 0.281054 0.117512
368 1 0.1 0.331054 0.017512
1568 1 0.1 0.331054 0.067512
2768 1 0.1 0.331054 0.117512
251 1 0.15 0.231054 0.017512
1451 1 0.15 0.231054 0.067512
2651 1 0.15 0.231054 0.117512
311 1 0.15 0.281054 0.017512
1511 1 0.15 0.281054 0.067512
2711 1 0.15 0.281054 0.117512
371 1 0.15 0.331054 0.017512
1571 1 0.15 0.331054 0.067512
2771 1 0.15 0.331054 0.117512
249 1 0.1 0.241101 0.00147579
1449 1 0.1 0.241101 0.0514758
2649 1 0.1 0.241101 0.101476
309 1 0.1 0.291101 0.00147579
1509 1 0.1 0.291101 0.0514758
2709 1 0.1 0.291101 0.101476
252 1 0.15 0.241101 0.00147579
1452 1 0.15 0.241101 0.0514758
2652 1 0.15 0.241101 0.101476
312 1 0.15 0.291101 0.00147579
1512 1 0.15 0.291101 0.0514758
2712 1 0.15 0.291101 0.101476
253 2 0.2 0.229872 0.00560551
1453 2 0.2 0.229872 0.0556055
2653 2 0.2 0.229872 0.105606
313 2 0.2 0.279872 0.00560551
1513 2 0.2 0.279872 0.0556055
2713 2 0.2 0.279872 0.105606
373 2 0.2 0.329872 0.00560551
1573 2 0.2 0.329872 0.0556055
2773 2 0.2 0.329872 0.105606
256 2 0.25 0.229872 0.00560551
1456 2 0.25 0.229872 0.0556055
2656 2 0.25 0.229872 0.105606
316 2 0.25 0.279872 0.00560551
1516 2 0.25 0.279872 0.0556055
2716 2 0.25 0.279872 0.105606
376 2 0.25 0.329872 0.00560551
1576 2 0.25 0.329872 0.0556055
2776 2 0.25 0.329872 0.105606
254 1 0.2 0.231054 0.017512
1454 1 0.2 0.231054 0.067512
2654 1 0.2 0.231054 0.117512
314 1 0.2 0.281054 0.017512
1514 1 0.2 0.281054 0.067512
2714 1 0.2 0.281054 0.117512
374 1 0.2 0.331054 0.017512
1574 1 0.2 0.331054 0.067512
2774 1 0.2 0.331054 0.117512
257 1 0.25 0.231054 0.017512
1457 1 0.25 0.231054 0.067512
2657 1 0.25 0.231054 0.117512
317 1 0.25 0.281054 0.017512
1517 1 0.25 0.281054 0.067512
2717 1 0.25 0.281054 0.117512
377 1 0.25 0.331054 0.017512
1577 1 0.25 0.331054 0.067512
2777 1 0.25 0.331054 0.117512
255 1 0.2 0.241101 0.00147579
1455 1 0.2 0.241101 0.0514758
2655 1 0.2 0.241101 0.101476
315 1 0.2 0.291101 0.00147579
1515 1 0.2 0.291101 0.0514758
2715 1 0.2 0.291101 0.101476
258 1 0.25 0.241101 0.00147579
1458 1 0.25 0.241101 0.0514758
2658 1 0.25 0.241101 0.101476
318 1 0.25 0.291101 0.00147579
1518 1 0.25 0.291101 0.0514758
2718 1 0.25 0.291101 0.101476
259 2 0.3 0.229872 0.00560551
1459 2 0.3 0.229872 0.0556055
2659 2 0.3 0.229872 0.105606
319 2 0.3 0.279872 0.00560551
1519 2 0.3 0.279872 0.0556055
2719 2 0.3 0.279872 0.105606
379 2 0.3 0.329872 0.00560551
1579 2 0.3 0.329872 0.0556055
2779 2 0.3 0.329872 0.105606
262 2 0.35 0.229872 0.00560551
1462 2 0.35 0.229872 0.0556055
2662 2 0.35 0.229872 0.105606
322 2 0.35 0.279872 0.00560551
1522 2 0.35 0.279872 0.0556055
2722 2 0.35 0.279872 0.105606
382 2 0.35 0.329872 0.00560551
1582 2 0.35 0.329872 0.0556055
2782 2 0.35 0.329872 0.105606
260 1 0.3 0.231054 0.017512
1460 1 0.3 0.231054 0.067512
2660 1 0.3 0.231054 0.117512
320 1 0.3 0.281054 0.017512
1520 1 0.3 0.281054 0.067512
2720 1 0.3 0.281054 0.117512
380 1 0.3 0.331054 0.017512
1580 1 0.3 0.331054 0.067512
2780 1 0.3 0.331054 0.117512
263 1 0.35 0.231054 0.017512
1463 1 0.35 0.231054 0.067512
2663 1 0.35 0.231054 0.117512
323 1 0.35 0.281054 0.017512
1523 1 0.35 0.281054 0.067512
2723 1 0.35 0.281054 0.117512
383 1 0.35 0.331054 0.017512
1583 1 0.35 0.331054 0.067512
2783 1 0.35 0.331054 0.117512
261 1 0.3 0.241101 0.00147579
1461 1 0.3 0.241101 0.0514758
2661 1 0.3 0.241101 0.101476
321 1 0.3 0.291101 0.00147579
1521 1 0.3 0.291101 0.0514758
2721 1 0.3 0.291101 0.101476
264 1 0.35 0.241101 0.00147579
1464 1 0.35 0.241101 0.0514758
2664 1 0.35 0.241101 0.101476
324 1 0.35 0.291101 0.00147579
1524 1 0.35 0.291101 0.0514758
2724 1 0.35 0.291101 0.101476
265 2 0.4 0.229872 0.00560551
1465 2 0.4 0.229872 0.0556055
2665 2 0.4 0.229872 0.105606
325 2 0.4 0.279872 0.00560551
1525 2 0.4 0.279872 0.0556055
2725 2 0.4 0.279872 0.105606
385 2 0.4 0.329872 0.00560551
1585 2 0.4 0.329872 0.0556055
2785 2 0.4 0.329872 0.105606
268 2 0.45 0.229872 0.00560551
1468 2 0.45 0.229872 0.0556055
2668 2 0.45 0.229872 0.105606
328 2 0.45 0.279872 0.00560551
1528 2 0.45 0.279872 0.0556055
2728 2 0.45 0.279872 0.105606
388 2 0.45 0.329872 0.00560551
1588 2 0.45 0.329872 0.0556055
2788 2 0.45 0.329872 0.105606
266 1 0.4 0.231054 0.017512
1466 1 0.4 0.231054 0.067512
2666 1 0.4 0.231054 0.117512
326 1 0.4 0.281054 0.017512
1526 1 0.4 0.281054 0.067512
2726 1 0.4 0.281054 0.117512
386 1 0.4 0.331054 0.017512
1586 1 0.4 0.331054 0.067512
2786 1 0.4 0.331054 0.117512
269 1 0.45 0.231054 0.017512
1469 1 0.45 0.231054 0.067512
2669 1 0.45 0.231054 0.117512
329 1 0.45 0.281054 0.017512
1529 1 0.45 0.281054 0.067512
2729 1 0.45 0.281054 0.117512
389 1 0.45 0.331054 0.017512
1589 1 0.45 0.331054 0.067512
2789 1 0.45 0.331054 0.117512
267 1 0.4 0.241101 0.00147579
1467 1 0.4 0.241101 0.0514758
2667 1 0.4 0.241101 0.101476
327 1 0.4 0.291101 0.00147579
1527 1 0.4 0.291101 0.0514758
2727 1 0.4 0.291101 0.101476
270 1 0.45 0.241101 0.00147579
1470 1 0.45 0.241101 0.0514758
2670 1 0.45 0.241101 0.101476
330 1 0.45 0.291101 0.00147579
1530 1 0.45 0.291101 0.0514758
2730 1 0.45 0.291101 0.101476
3601 2 1.63844e-07 0.0298715 0.155606
4801 2 1.63844e-07 0.0298715 0.205606
3661 2 1.63844e-07 0.0798715 0.155606
4861 2 1.63844e-07 0.0798715 0.205606
3604 2 0.0500002 0.0298715 0.155606
4804 2 0.0500002 0.0298715 0.205606
3664 2 0.0500002 0.0798715 0.155606
4864 2 0.0500002 0.0798715 0.205606
3602 1 2.11329e-09 0.0310538 0.167512
4802 1 2.11329e-09 0.0310538 0.217512
3662 1 2.11329e-09 0.0810538 0.167512
4862 1 2.11329e-09 0.0810538 0.217512
3605 1 0.05 0.0310538 0.167512
4805 1 0.05 0.0310538 0.217512
3665 1 0.05 0.0810538 0.167512
4865 1 0.05 0.0810538 0.217512
3603 1 1.63523e-07 0.0411013 0.151476
4803 1 1.63523e-07 0.0411013 0.201476
3663 1 1.63523e-07 0.0911013 0.151476
4863 1 1.63523e-07 0.0911013 0.201476
3606 1 0.0500002 0.0411013 0.151476
4806 1 0.0500002 0.0411013 0.201476
3666 1 0.0500002 0.0911013 0.151476
4866 1 0.0500002 0.0911013 0.201476
3607 2 0.1 0.0298715 0.155606
4807 2 0.1 0.0298715 0.205606
3667 2 0.1 0.0798715 0.155606
4867 2 0.1 0.0798715 0.205606
3610 2 0.15 0.0298715 0.155606
4810 2 0.15 0.0298715 0.205606
3670 2 0.15 0.0798715 0.155606
4870 2 0.15 0.0798715 0.205606
3608 1 0.1 0.0310538 0.167512
4808 1 0.1 0.0310538 0.217512
3668 1 0.1 0.0810538 0.167512
4868 1 0.1 0.0810538 0.217512
3611 1 0.15 0.0310538 0.167512
4811 1 0.15 0.0310538 0.217512
3671 1 0.15 0.0810538 0.167512
4871 1 0.15 0.0810538 0.217512
3609 1 0.1 0.0411013 0.151476
4809 1 0.1 0.0411013 0.201476
3669 1 0.1 0.0911013 0.151476
4869 1 0.1 0.0911013 0.201476
3612 1 0.15 0.0411013 0.151476
4812 1 0.15 0.0411013 0.201476
3672 1 0.15 0.0911013 0.151476
4872 1 0.15 0.0911013 0.201476
3613 2 0.2 0.0298715 0.155606
4813 2 0.2 0.0298715 0.205606
3673 2 0.2 0.0798715 0.155606
4873 2 0.2 0.0798715 0.205606
3616 2 0.25 0.0298715 0.155606
4816 2 0.25 0.0298715 0.205606
3676 2 0.25 0.0798715 0.155606
4876 2 0.25 0.0798715 0.205606
3614 1 0.2 0.0310538 0.167512
4814 1 0.2 0.0310538 0.217512
3674 1 0.2 0.0810538 0.167512
4874 1 0.2 0.0810538 0.217512
3617 1 0.25 0.0310538 0.167512
4817 1 0.25 0.0310538 0.217512
3677 1 0.25 0.0810538 0.167512
4877 1 0.25 0.0810538 0.217512
3615 1 0.2 0.0411013 0.151476
4815 1 0.2 0.0411013 0.201476
3675 1 0.2 0.0911013 0.151476
4875 1 0.2 0.0911013 0.201476
3618 1 0.25 0.0411013 0.151476
4818 1 0.25 0.0411013 0.201476
3678 1 0.25 0.0911013 0.151476
4878 1 0.25 0.0911013 0.201476
3619 2 0.3 0.0298715 0.155606
4819 2 0.3 0.0298715 0.205606
3679 2 0.3 0.0798715 0.155606
4879 2 0.3 0.0798715 0.205606
3622 2 0.35 0.0298715 0.155606
4822 2 0.35 0.0298715 0.205606
3682 2 0.35 0.0798715 0.155606
4882 2 0.35 0.0798715 0.205606
3620 1 0.3 0.0310538 0.167512
4820 1 0.3 0.0310538 0.217512
3680 1 0.3 0.0810538 0.167512
4880 1 0.3 0.0810538 0.217512
3623 1 0.35 0.0310538 0.167512
4823 1 0.35 0.0310538 0.217512
3683 1 0.35 0.0810538 0.167512
4883 1 0.35 0.0810538 0.217512
3621 1 0.3 0.0411013 0.151476
4821 1 0.3 0.0411013 0.201476
3681 1 0.3 0.0911013 0.151476
4881 1 0.3 0.0911013 0.201476
3624 1 0.35 0.0411013 0.151476
4824 1 0.35 0.0411013 0.201476
3684 1 0.35 0.0911013 0.151476
4884 1 0.35 0.0911013 0.201476
3625 2 0.4 0.0298715 0.155606
4825 2 0.4 0.0298715 0.205606
3685 2 0.4 0.0798715 0.155606
4885 2 0.4 0.0798715 0.205606
3628 2 0.45 0.0298715 0.155606
4828 2 0.45 0.0298715 0.205606
3688 2 0.45 0.0798715 0.155606
4888 2 0.45 0.0798715 0.205606
3626 1 0.4 0.0310538 0.167512
4826 1 0.4 0.0310538 0.217512
3686 1 0.4 0.0810538 0.167512
4886 1 0.4 0.0810538 0.217512
3629 1 0.45 0.0310538 0.167512
4829 1 0.45 0.0310538 0.217512
3689 1 0.45 0.0810538 0.167512
4889 1 0.45 0.0810538 0.217512
3627 1 0.4 0.0411013 0.151476
4827 1 0.4 0.0411013 0.201476
3687 1 0.4 0.0911013 0.151476
4887 1 0.4 0.0911013 0.201476
3630 1 0.45 0.0411013 0.151476
4830 1 0.45 0.0411013 0.201476
3690 1 0.45 0.0911013 0.151476
4890 1 0.45 0.0911013 0.201476
3721 2 1.63844e-07 0.129872 0.155606
4921 2 1.63844e-07 0.129872 0.205606
3781 2 1.63844e-07 0.179872 0.155606
4981 2 1.63844e-07 0.179872 0.205606
3724 2 0.0500002 0.129872 0.155606
4924 2 0.0500002 0.129872 0.205606
3784 2 0.0500002 0.179872 0.155606
4984 2 0.0500002 0.179872 0.205606
3722 1 2.11329e-09 0.131054 0.167512
4922 1 2.11329e-09 0.131054 0.217512
3782 1 2.11329e-09 0.181054 0.167512
4982 1 2.11329e-09 0.181054 0.217512
3725 1 0.05 0.131054 0.167512
4925 1 0.05 0.131054 0.217512
3785 1 0.05 0.181054 0.167512
4985 1 0.05 0.181054 0.217512
3723 1 1.63523e-07 0.141101 0.151476
4923 1 1.63523e-07 0.141101 0.201476
3783 1 1.63523e-07 0.191101 0.151476
4983 1 1.63523e-07 0.191101 0.201476
3726 1 0.0500002 0.141101 0.151476
4926 1 0.0500002 0.141101 0.201476
3786 1 0.0500002 0.191101 0.151476
4986 1 0.0500002 0.191101 0.201476
3727 2 0.1 0.129872 0.155606
4927 2 0.1 0.129872 0.205606
3787 2 0.1 0.179872 0.155606
4987 2 0.1 0.179872 0.205606
3730 2 0.15 0.129872 0.155606
4930 2 0.15 0.129872 0.205606
3790 2 0.15 0.179872 0.155606
4990 2 0.15 0.179872 0.205606
3728 1 0.1 0.131054 0.167512
4928 1 0.1 0.131054 0.217512
3788 1 0.1 0.181054 0.167512
4988 1 0.1 0.181054 0.217512
3731 1 0.15 0.131054 0.167512
4931 1 0.15 0.131054 0.217512
3791 1 0.15 0.181054 0.167512
4991 1 0.15 0.181054 0.217512
3729 1 0.1 0.141101 0.151476
4929 1 0.1 0.141101 0.201476
3789 1 0.1 0.191101 0.151476
4989 1 0.1 0.191101 0.201476
3732 1 0.15 0.141101 0.151476
4932 1 0.15 0.141101 0.201476
3792 1 0.15 0.191101 0.151476
4992 1 0.15 0.191101 0.201476
3733 2 0.2 0.129872 0.155606
4933 2 0.2 0.129872 0.205606
3793 2 0.2 0.179872 0.155606
4993 2 0.2 0.179872 0.205606
3736 2 0.25 0.129872 0.155606
4936 2 0.25 0.129872 0.205606
3796 2 0.25 0.179872 0.155606
4996 2 0.25 0.179872 0.205606
3734 1 0.2 0.131054 0.167512
4934 1 0.2 0.131054 0.217512
3794 1 0.2 0.181054 0.167512
4994 1 0.2 0.181054 0.217512
3737 1 0.25 0.131054 0.167512
4937 1 0.25 0.131054 0.217512
3797 1 0.25 0.181054 0.167512
4997 1 0.25 0.181054 0.217512
3735 1 0.2 0.141101 0.151476
4935 1 0.2 0.141101 0.201476
3795 1 0.2 0.191101 0.151476
4995 1 0.2 0.191101 0.201476
3738 1 0.25 0.141101 0.151476
4938 1 0.25 0.141101 0.201476
3798 1 0.25 0.191101 0.151476
4998 1 0.25 0.191101 0.201476
3739 2 0.3 0.129872 0.155606
4939 2 0.3 0.129872 0.205606
3799 2 0.3 0.179872 0.155606
4999 2 0.3 0.179872 0.205606
3742 2 0.35 0.129872 0.155606
4942 2 0.35 0.129872 0.205606
3802 2 0.35 0.179872 0.155606
5002 2 0.35 0.179872 0.205606
3740 1 0.3 0.131054 0.167512
4940 1 0.3 0.131054 0.217512
3800 1 0.3 0.181054 0.167512
5000 1 0.3 0.181054 0.217512
3743 1 0.35 0.131054 0.167512
4943 1 0.35 0.131054 0.217512
3803 1 0.35 0.181054 0.167512
5003 1 0.35 0.181054 0.217512
3741 1 0.3 0.141101 0.151476
4941 1 0.3 0.141101 0.201476
3801 1 0.3 0.191101 0.151476
5001 1 0.3 0.191101 0.201476
3744 1 0.35 0.141101 0.151476
4944 1 0.35 0.141101 0.201476
3804 1 0.35 0.191101 0.151476
5004 1 0.35 0.191101 0.201476
3745 2 0.4 0.129872 0.155606
4945 2 0.4 0.129872 0.205606
3805 2 0.4 0.179872 0.155606
5005 2 0.4 0.179872 0.205606
3748 2 0.45 0.129872 0.155606
4948 2 0.45 0.129872 0.205606
3808 2 0.45 0.179872 0.155606
5008 2 0.45 0.179872 0.205606
3746 1 0.4 0.131054 0.167512
4946 1 0.4 0.131054 0.217512
3806 1 0.4 0.181054 0.167512
5006 1 0.4 0.181054 0.217512
3749 1 0.45 0.131054 0.167512
4949 1 0.45 0.131054 0.217512
3809 1 0.45 0.181054 0.167512
5009 1 0.45 0.181054 0.217512
3747 1 0.4 0.141101 0.151476
4947 1 0.4 0.141101 0.201476
3807 1 0.4 0.191101 0.151476
5007 1 0.4 0.191101 0.201476
3750 1 0.45 0.141101 0.151476
4950 1 0.45 0.141101 0.201476
3810 1 0.45 0.191101 0.151476
5010 1 0.45 0.191101 0.201476
3841 2 1.63844e-07 0.229872 0.155606
5041 2 1.63844e-07 0.229872 0.205606
3901 2 1.63844e-07 0.279872 0.155606
5101 2 1.63844e-07 0.279872 0.205606
3961 2 1.63844e-07 0.329872 0.155606
5161 2 1.63844e-07 0.329872 0.205606
3844 2 0.0500002 0.229872 0.155606
5044 2 0.0500002 0.229872 0.205606
3904 2 0.0500002 0.279872 0.155606
5104 2 0.0500002 0.279872 0.205606
3964 2 0.0500002 0.329872 0.155606
5164 2 0.0500002 0.329872 0.205606
3842 1 2.11329e-09 0.231054 0.167512
5042 1 2.11329e-09 0.231054 0.217512
3902 1 2.11329e-09 0.281054 0.167512
5102 1 2.11329e-09 0.281054 0.217512
3962 1 2.11329e-09 0.331054 0.167512
5162 1 2.11329e-09 0.331054 0.217512
3845 1 0.05 0.231054 0.167512
5045 1 0.05 0.231054 0.217512
3905 1 0.05 0.281054 0.167512
5105 1 0.05 0.281054 0.217512
3965 1 0.05 0.331054 0.167512
5165 1 0.05 0.331054 0.217512
3843 1 1.63523e-07 0.241101 0.151476
5043 1 1.63523e-07 0.241101 0.201476
3903 1 1.63523e-07 0.291101 0.151476
5103 1 1.63523e-07 0.291101 0.201476
3846 1 0.0500002 0.241101 0.151476
5046 1 0.0500002 0.241101 0.201476
3906 1 0.0500002 0.291101 0.151476
5106 1 0.0500002 0.291101 0.201476
3847 2 0.1 0.229872 0.155606
5047 2 0.1 0.229872 0.205606
3907 2 0.1 0.279872 0.155606
5107 2 0.1 0.279872 0.205606
3967 2 0.1 0.329872 0.155606
5167 2 0.1 0.329872 0.205606
3850 2 0.15 0.229872 0.155606
5050 2 0.15 0.229872 0.205606
3910 2 0.15 0.279872 0.155606
5110 2 0.15 0.279872 0.205606
3970 2 0.15 0.329872 0.155606
5170 2 0.15 0.329872 0.205606
3848 1 0.1 0.231054 0.167512
5048 1 0.1 0.231054 0.217512
3908 1 0.1 0.281054 0.167512
5108 1 0.1 0.281054 0.217512
3968 1 0.1 0.331054 0.167512
5168 1 0.1 0.331054 0.217512
3851 1 0.15 0.231054 0.167512
5051 1 0.15 0.231054 0.217512
3911 1 0.15 0.281054 0.167512
5111 1 0.15 0.281054 0.217512
3971 1 0.15 0.331054 0.167512
5171 1 0.15 0.331054 0.217512
3849 1 0.1 0.241101 0.151476
5049 1 0.1 0.241101 0.201476
3909 1 0.1 0.291101 0.151476
5109 1 0.1 0.291101 0.201476
3852 1 0.15 0.241101 0.151476
5052 1 0.15 0.241101 0.201476
3912 1 0.15 0.291101 0.151476
5112 1 0.15 0.291101 0.201476
3853 2 0.2 0.229872 0.155606
5053 2 0.2 0.229872 0.205606
3913 2 0.2 0.279872 0.155606
5113 2 0.2 0.279872 0.205606
3973 2 0.2 0.329872 0.155606
5173 2 0.2 0.329872 0.205606
3856 2 0.25 0.229872 0.155606
5056 2 0.25 0.229872 0.205606
3916 2 0.25 0.279872 0.155606
5116 2 0.25 0.279872 0.205606
3976 2 0.25 0.329872 0.155606
5176 2 0.25 0.329872 0.205606
3854 1 0.2 0.231054 0.167512
5054 1 0.2 0.231054 0.217512
3914 1 0.2 0.281054 0.167512
5114 1 0.2 0.281054 0.217512
3974 1 0.2 0.331054 0.167512
5174 1 0.2 0.331054 0.217512
3857 1 0.25 0.231054 0.167512
5057 1 0.25 0.231054 0.217512
3917 1 0.25 0.281054 0.167512
5117 1 0.25 0.281054 0.217512
3977 1 0.25 0.331054 0.167512
5177 1 0.25 0.331054 0.217512
3855 1 0.2 0.241101 0.151476
5055 1 0.2 0.241101 0.201476
3915 1 0.2 0.291101 0.151476
5115 1 0.2 0.291101 0.201476
3858 1 0.25 0.241101 0.151476
5058 1 0.25 0.241101 0.201476
3918 1 0.25 0.291101 0.151476
5118 1 0.25 0.291101 0.201476
3859 2 0.3 0.229872 0.155606
5059 2 0.3 0.229872 0.205606
3919 2 0.3 0.279872 0.155606
5119 2 0.3 0.279872 0.205606
3979 2 0.3 0.329872 0.155606
5179 2 0.3 0.329872 0.205606
3862 2 0.35 0.229872 0.155606
5062 2 0.35 0.229872 0.205606
3922 2 0.35 0.279872 0.155606
5122 2 0.35 0.279872 0.205606
3982 2 0.35 0.329872 0.155606
5182 2 0.35 0.329872 0.205606
3860 1 0.3 0.231054 0.167512
5060 1 0.3 0.231054 0.217512
3920 1 0.3 0.281054 0.167512
5120 1 0.3 0.281054 0.217512
3980 1 0.3 0.331054 0.167512
5180 1 0.3 0.331054 0.217512
3863 1 0.35 0.231054 0.167512
5063 1 0.35 0.231054 0.217512