LAMMPS data. description

3456 atoms
2304 bonds
1152 angles

2 atom types
1 bond types
1 angle types

0.0 26.65592 xlo xhi
0.0 23.084704 ylo yhi
0.0 57.92148 zlo zhi
-13.32796 0.0 0.0 xy xz yz

Atoms

1 1 2 -1.1128 1.3327959999994514e-05 2.412882516192 0.45248260176000005
2 1 1 0.5564 -1.3327959999912016e-05 2.507899157856 1.41843912372
3 1 1 0.5564 2.6655920000125664e-05 3.3238741901439997 0.11648009628000001
4 2 2 -1.1128 4.44299541764 2.412882516192 0.45248260176000005
5 2 1 0.5564 4.4429687617199995 2.507899157856 1.41843912372
6 2 1 0.5564 4.443008745599999 3.3238741901439997 0.11648009628000001
7 3 2 -1.1128 8.884964582359999 2.412882516192 0.45248260176000005
8 3 1 0.5564 8.88496458236 2.507899157856 1.41843912372
9 3 1 0.5564 8.88497791032 3.3238741901439997 0.11648009628000001
10 4 2 -1.1128 13.327973327959999 2.412882516192 0.45248260176000005
11 4 1 0.5564 13.32794667204 2.507899157856 1.41843912372
12 4 1 0.5564 13.327986655919998 3.3238741901439997 0.11648009628000001
13 5 2 -1.1128 17.76994249268 2.412882516192 0.45248260176000005
14 5 1 0.5564 17.76991583676 2.507899157856 1.41843912372
15 5 1 0.5564 17.76995582064 3.3238741901439997 0.11648009628000001
16 6 2 -1.1128 22.212924582359996 2.412882516192 0.45248260176000005
17 6 1 0.5564 22.212924582359996 2.507899157856 1.41843912372
18 6 1 0.5564 22.212937910319997 3.3238741901439997 0.11648009628000001
19 7 2 -1.1128 -2.22099791032 6.259971522496 0.45248260176000005
20 7 1 0.5564 -2.22098458236 6.355980806431999 1.41843912372
21 7 1 0.5564 -2.2209845823599994 7.170963196448 0.11648009628000001
22 8 2 -1.1128 2.220997910319999 6.259971522496 0.45248260176000005
23 8 1 0.5564 2.22098458236 6.355980806431999 1.41843912372
24 8 1 0.5564 2.2210112382799996 7.170963196448 0.11648009628000001
25 9 2 -1.1128 6.66398 6.259971522496 0.45248260176000005
26 9 1 0.5564 6.663966672039999 6.355980806431999 1.41843912372
27 9 1 0.5564 6.663993327959998 7.170963196448 0.11648009628000001
28 10 2 -1.1128 11.105975820639998 6.259971522496 0.45248260176000005
29 10 1 0.5564 11.10596249268 6.355980806431999 1.41843912372
30 10 1 0.5564 11.1059891486 7.170963196448 0.11648009628000001
31 11 2 -1.1128 15.548957910319999 6.259971522496 0.45248260176000005
32 11 1 0.5564 15.548944582359999 6.355980806431999 1.41843912372
33 11 1 0.5564 15.548971238279998 7.170963196448 0.11648009628000001
34 12 2 -1.1128 19.99194 6.259971522496 0.45248260176000005
35 12 1 0.5564 19.991926672039998 6.355980806431999 1.41843912372
36 12 1 0.5564 19.99195332796 7.170963196448 0.11648009628000001
37 13 2 -1.1128 -4.44299541764 10.1070605288 0.45248260176000005
38 13 1 0.5564 -4.443008745599999 10.203069812735999 1.41843912372
39 13 1 0.5564 -4.442982089679999 11.018052202752 0.11648009628000001
40 14 2 -1.1128 1.332795999929483e-05 10.1070605288 0.45248260176000005
41 14 1 0.5564 2.3059661501179106e-16 10.203069812735999 1.41843912372
42 14 1 0.5564 2.665592000046204e-05 11.018052202752 0.11648009628000001
43 15 2 -1.1128 4.44299541764 10.1070605288 0.45248260176000005
44 15 1 0.5564 4.442982089679999 10.203069812735999 1.41843912372
45 15 1 0.5564 4.4430087456 11.018052202752 0.11648009628000001
46 16 2 -1.1128 8.884964582359999 10.1070605288 0.45248260176000005
47 16 1 0.5564 8.884977910319998 10.203069812735999 1.41843912372
48 16 1 0.5564 8.884977910319998 11.018052202752 0.11648009628000001
49 17 2 -1.1128 13.327973327959999 10.1070605288 0.45248260176000005
50 17 1 0.5564 13.32796 10.203069812735999 1.41843912372
51 17 1 0.5564 13.327986655919998 11.018052202752 0.11648009628000001
52 18 2 -1.1128 17.76994249268 10.1070605288 0.45248260176000005
53 18 1 0.5564 17.76992916472 10.203069812735999 1.41843912372
54 18 1 0.5564 17.76995582064 11.018052202752 0.11648009628000001
55 19 2 -1.1128 -6.663979999999999 13.955165262079998 0.45248260176000005
56 19 1 0.5564 -6.664006655919999 14.050181903743997 1.41843912372
57 19 1 0.5564 -6.663966672039999 14.866156936031999 0.11648009628000001
58 20 2 -1.1128 -2.2209979103199995 13.955165262079998 0.45248260176000005
59 20 1 0.5564 -2.220997910319999 14.050181903743997 1.41843912372
60 20 1 0.5564 -2.22098458236 14.866156936031999 0.11648009628000001
61 21 2 -1.1128 2.2209979103200013 13.955165262079998 0.45248260176000005
62 21 1 0.5564 2.2209712544000006 14.050181903743997 1.41843912372
63 21 1 0.5564 2.22101123828 14.866156936031999 0.11648009628000001
64 22 2 -1.1128 6.6639800000000005 13.955165262079998 0.45248260176000005
65 22 1 0.5564 6.663953344079999 14.050181903743997 1.41843912372
66 22 1 0.5564 6.663993327959999 14.866156936031999 0.11648009628000001
67 23 2 -1.1128 11.105975820640001 13.955165262079998 0.45248260176000005
68 23 1 0.5564 11.105949164719998 14.050181903743997 1.41843912372
69 23 1 0.5564 11.105989148599999 14.866156936031999 0.11648009628000001
70 24 2 -1.1128 15.548957910319999 13.955165262079998 0.45248260176000005
71 24 1 0.5564 15.5489312544 14.050181903743997 1.41843912372
72 24 1 0.5564 15.54897123828 14.866156936031999 0.11648009628000001
73 25 2 -1.1128 -8.88496458236 17.802254268384 0.45248260176000005
74 25 1 0.5564 -8.88496458236 17.898240467616 1.41843912372
75 25 1 0.5564 -8.884951254399999 18.713245942336 0.11648009628000001
76 26 2 -1.1128 -4.442995417640001 17.802254268384 0.45248260176000005
77 26 1 0.5564 -4.442995417640001 17.898240467616 1.41843912372
78 26 1 0.5564 -4.442982089679999 18.713245942336 0.11648009628000001
79 27 2 -1.1128 1.3327959998203095e-05 17.802254268384 0.45248260176000005
80 27 1 0.5564 1.3327959999670442e-05 17.898240467616 1.41843912372
81 27 1 0.5564 2.6655920000110153e-05 18.713245942336 0.11648009628000001
82 28 2 -1.1128 4.442995417639999 17.802254268384 0.45248260176000005
83 28 1 0.5564 4.442995417639997 17.898240467616 1.41843912372
84 28 1 0.5564 4.443008745599999 18.713245942336 0.11648009628000001
85 29 2 -1.1128 8.88496458236 17.802254268384 0.45248260176000005
86 29 1 0.5564 8.884964582359997 17.898240467616 1.41843912372
87 29 1 0.5564 8.88497791032 18.713245942336 0.11648009628000001
88 30 2 -1.1128 13.327973327959997 17.802254268384 0.45248260176000005
89 30 1 0.5564 13.32797332796 17.898240467616 1.41843912372
90 30 1 0.5564 13.327986655919997 18.713245942336 0.11648009628000001
91 31 2 -1.1128 -11.10696208968 21.649343274688 0.45248260176000005
92 31 1 0.5564 -11.10697541764 21.745352558624 1.41843912372
93 31 1 0.5564 -11.106948761719998 22.560334948639998 0.11648009628000001
94 32 2 -1.1128 -6.6639800000000005 21.649343274688 0.45248260176000005
95 32 1 0.5564 -6.663993327959999 21.745352558624 1.41843912372
96 32 1 0.5564 -6.663966672039999 22.560334948639998 0.11648009628000001
97 33 2 -1.1128 -2.220997910320001 21.649343274688 0.45248260176000005
98 33 1 0.5564 -2.220984582359999 21.745352558624 1.41843912372
99 33 1 0.5564 -2.220984582359999 22.560334948639998 0.11648009628000001
100 34 2 -1.1128 2.220997910319998 21.649343274688 0.45248260176000005
101 34 1 0.5564 2.2209845823600007 21.745352558624 1.41843912372
102 34 1 0.5564 2.221011238280002 22.560334948639998 0.11648009628000001
103 35 2 -1.1128 6.663979999999997 21.649343274688 0.45248260176000005
104 35 1 0.5564 6.663966672040002 21.745352558624 1.41843912372
105 35 1 0.5564 6.663993327960001 22.560334948639998 0.11648009628000001
106 36 2 -1.1128 11.10597582064 21.649343274688 0.45248260176000005
107 36 1 0.5564 11.10596249268 21.745352558624 1.41843912372
108 36 1 0.5564 11.105989148599999 22.560334948639998 0.11648009628000001
109 37 2 -1.1128 1.3327959999994514e-05 2.412882516192 7.69318889508
110 37 1 0.5564 -1.3327959999912016e-05 2.507899157856 8.65914541704
111 37 1 0.5564 2.6655920000125664e-05 3.3238741901439997 7.3571863896
112 38 2 -1.1128 4.44299541764 2.412882516192 7.69318889508
113 38 1 0.5564 4.4429687617199995 2.507899157856 8.65914541704
114 38 1 0.5564 4.443008745599999 3.3238741901439997 7.3571863896
115 39 2 -1.1128 8.884964582359999 2.412882516192 7.69318889508
116 39 1 0.5564 8.88496458236 2.507899157856 8.65914541704
117 39 1 0.5564 8.88497791032 3.3238741901439997 7.3571863896
118 40 2 -1.1128 13.327973327959999 2.412882516192 7.69318889508
119 40 1 0.5564 13.32794667204 2.507899157856 8.65914541704
120 40 1 0.5564 13.327986655919998 3.3238741901439997 7.3571863896
121 41 2 -1.1128 17.76994249268 2.412882516192 7.69318889508
122 41 1 0.5564 17.76991583676 2.507899157856 8.65914541704
123 41 1 0.5564 17.76995582064 3.3238741901439997 7.3571863896
124 42 2 -1.1128 22.212924582359996 2.412882516192 7.69318889508
125 42 1 0.5564 22.212924582359996 2.507899157856 8.65914541704
126 42 1 0.5564 22.212937910319997 3.3238741901439997 7.3571863896
127 43 2 -1.1128 -2.22099791032 6.259971522496 7.69318889508
128 43 1 0.5564 -2.22098458236 6.355980806431999 8.65914541704
129 43 1 0.5564 -2.2209845823599994 7.170963196448 7.3571863896
130 44 2 -1.1128 2.220997910319999 6.259971522496 7.69318889508
131 44 1 0.5564 2.22098458236 6.355980806431999 8.65914541704
132 44 1 0.5564 2.2210112382799996 7.170963196448 7.3571863896
133 45 2 -1.1128 6.66398 6.259971522496 7.69318889508
134 45 1 0.5564 6.663966672039999 6.355980806431999 8.65914541704
135 45 1 0.5564 6.663993327959998 7.170963196448 7.3571863896
136 46 2 -1.1128 11.105975820639998 6.259971522496 7.69318889508
137 46 1 0.5564 11.10596249268 6.355980806431999 8.65914541704
138 46 1 0.5564 11.1059891486 7.170963196448 7.3571863896
139 47 2 -1.1128 15.548957910319999 6.259971522496 7.69318889508
140 47 1 0.5564 15.548944582359999 6.355980806431999 8.65914541704
141 47 1 0.5564 15.548971238279998 7.170963196448 7.3571863896
142 48 2 -1.1128 19.99194 6.259971522496 7.69318889508
143 48 1 0.5564 19.991926672039998 6.355980806431999 8.65914541704
144 48 1 0.5564 19.99195332796 7.170963196448 7.3571863896
145 49 2 -1.1128 -4.44299541764 10.1070605288 7.69318889508
146 49 1 0.5564 -4.443008745599999 10.203069812735999 8.65914541704
147 49 1 0.5564 -4.442982089679999 11.018052202752 7.3571863896
148 50 2 -1.1128 1.332795999929483e-05 10.1070605288 7.69318889508
149 50 1 0.5564 2.3059661501179106e-16 10.203069812735999 8.65914541704
150 50 1 0.5564 2.665592000046204e-05 11.018052202752 7.3571863896
151 51 2 -1.1128 4.44299541764 10.1070605288 7.69318889508
152 51 1 0.5564 4.442982089679999 10.203069812735999 8.65914541704
153 51 1 0.5564 4.4430087456 11.018052202752 7.3571863896
154 52 2 -1.1128 8.884964582359999 10.1070605288 7.69318889508
155 52 1 0.5564 8.884977910319998 10.203069812735999 8.65914541704
156 52 1 0.5564 8.884977910319998 11.018052202752 7.3571863896
157 53 2 -1.1128 13.327973327959999 10.1070605288 7.69318889508
158 53 1 0.5564 13.32796 10.203069812735999 8.65914541704
159 53 1 0.5564 13.327986655919998 11.018052202752 7.3571863896
160 54 2 -1.1128 17.76994249268 10.1070605288 7.69318889508
161 54 1 0.5564 17.76992916472 10.203069812735999 8.65914541704
162 54 1 0.5564 17.76995582064 11.018052202752 7.3571863896
163 55 2 -1.1128 -6.663979999999999 13.955165262079998 7.69318889508
164 55 1 0.5564 -6.664006655919999 14.050181903743997 8.65914541704
165 55 1 0.5564 -6.663966672039999 14.866156936031999 7.3571863896
166 56 2 -1.1128 -2.2209979103199995 13.955165262079998 7.69318889508
167 56 1 0.5564 -2.220997910319999 14.050181903743997 8.65914541704
168 56 1 0.5564 -2.22098458236 14.866156936031999 7.3571863896
169 57 2 -1.1128 2.2209979103200013 13.955165262079998 7.69318889508
170 57 1 0.5564 2.2209712544000006 14.050181903743997 8.65914541704
171 57 1 0.5564 2.22101123828 14.866156936031999 7.3571863896
172 58 2 -1.1128 6.6639800000000005 13.955165262079998 7.69318889508
173 58 1 0.5564 6.663953344079999 14.050181903743997 8.65914541704
174 58 1 0.5564 6.663993327959999 14.866156936031999 7.3571863896
175 59 2 -1.1128 11.105975820640001 13.955165262079998 7.69318889508
176 59 1 0.5564 11.105949164719998 14.050181903743997 8.65914541704
177 59 1 0.5564 11.105989148599999 14.866156936031999 7.3571863896
178 60 2 -1.1128 15.548957910319999 13.955165262079998 7.69318889508
179 60 1 0.5564 15.5489312544 14.050181903743997 8.65914541704
180 60 1 0.5564 15.54897123828 14.866156936031999 7.3571863896
181 61 2 -1.1128 -8.88496458236 17.802254268384 7.69318889508
182 61 1 0.5564 -8.88496458236 17.898240467616 8.65914541704
183 61 1 0.5564 -8.884951254399999 18.713245942336 7.3571863896
184 62 2 -1.1128 -4.442995417640001 17.802254268384 7.69318889508
185 62 1 0.5564 -4.442995417640001 17.898240467616 8.65914541704
186 62 1 0.5564 -4.442982089679999 18.713245942336 7.3571863896
187 63 2 -1.1128 1.3327959998203095e-05 17.802254268384 7.69318889508
188 63 1 0.5564 1.3327959999670442e-05 17.898240467616 8.65914541704
189 63 1 0.5564 2.6655920000110153e-05 18.713245942336 7.3571863896
190 64 2 -1.1128 4.442995417639999 17.802254268384 7.69318889508
191 64 1 0.5564 4.442995417639997 17.898240467616 8.65914541704
192 64 1 0.5564 4.443008745599999 18.713245942336 7.3571863896
193 65 2 -1.1128 8.88496458236 17.802254268384 7.69318889508
194 65 1 0.5564 8.884964582359997 17.898240467616 8.65914541704
195 65 1 0.5564 8.88497791032 18.713245942336 7.3571863896
196 66 2 -1.1128 13.327973327959997 17.802254268384 7.69318889508
197 66 1 0.5564 13.32797332796 17.898240467616 8.65914541704
198 66 1 0.5564 13.327986655919997 18.713245942336 7.3571863896
199 67 2 -1.1128 -11.10696208968 21.649343274688 7.69318889508
200 67 1 0.5564 -11.10697541764 21.745352558624 8.65914541704
201 67 1 0.5564 -11.106948761719998 22.560334948639998 7.3571863896
202 68 2 -1.1128 -6.6639800000000005 21.649343274688 7.69318889508
203 68 1 0.5564 -6.663993327959999 21.745352558624 8.65914541704
204 68 1 0.5564 -6.663966672039999 22.560334948639998 7.3571863896
205 69 2 -1.1128 -2.220997910320001 21.649343274688 7.69318889508
206 69 1 0.5564 -2.220984582359999 21.745352558624 8.65914541704
207 69 1 0.5564 -2.220984582359999 22.560334948639998 7.3571863896
208 70 2 -1.1128 2.220997910319998 21.649343274688 7.69318889508
209 70 1 0.5564 2.2209845823600007 21.745352558624 8.65914541704
210 70 1 0.5564 2.221011238280002 22.560334948639998 7.3571863896
211 71 2 -1.1128 6.663979999999997 21.649343274688 7.69318889508
212 71 1 0.5564 6.663966672040002 21.745352558624 8.65914541704
213 71 1 0.5564 6.663993327960001 22.560334948639998 7.3571863896
214 72 2 -1.1128 11.10597582064 21.649343274688 7.69318889508
215 72 1 0.5564 11.10596249268 21.745352558624 8.65914541704
216 72 1 0.5564 11.105989148599999 22.560334948639998 7.3571863896
217 73 2 -1.1128 1.3327959999994514e-05 2.412882516192 14.93285260176
218 73 1 0.5564 -1.3327959999912016e-05 2.507899157856 15.898867045200001
219 73 1 0.5564 2.6655920000125664e-05 3.3238741901439997 14.596850096279999
220 74 2 -1.1128 4.44299541764 2.412882516192 14.93285260176
221 74 1 0.5564 4.4429687617199995 2.507899157856 15.898867045200001
222 74 1 0.5564 4.443008745599999 3.3238741901439997 14.596850096279999
223 75 2 -1.1128 8.884964582359999 2.412882516192 14.93285260176
224 75 1 0.5564 8.88496458236 2.507899157856 15.898867045200001
225 75 1 0.5564 8.88497791032 3.3238741901439997 14.596850096279999
226 76 2 -1.1128 13.327973327959999 2.412882516192 14.93285260176
227 76 1 0.5564 13.32794667204 2.507899157856 15.898867045200001
228 76 1 0.5564 13.327986655919998 3.3238741901439997 14.596850096279999
229 77 2 -1.1128 17.76994249268 2.412882516192 14.93285260176
230 77 1 0.5564 17.76991583676 2.507899157856 15.898867045200001
231 77 1 0.5564 17.76995582064 3.3238741901439997 14.596850096279999
232 78 2 -1.1128 22.212924582359996 2.412882516192 14.93285260176
233 78 1 0.5564 22.212924582359996 2.507899157856 15.898867045200001
234 78 1 0.5564 22.212937910319997 3.3238741901439997 14.596850096279999
235 79 2 -1.1128 -2.22099791032 6.259971522496 14.93285260176
236 79 1 0.5564 -2.22098458236 6.355980806431999 15.898867045200001
237 79 1 0.5564 -2.2209845823599994 7.170963196448 14.596850096279999
238 80 2 -1.1128 2.220997910319999 6.259971522496 14.93285260176
239 80 1 0.5564 2.22098458236 6.355980806431999 15.898867045200001
240 80 1 0.5564 2.2210112382799996 7.170963196448 14.596850096279999
241 81 2 -1.1128 6.66398 6.259971522496 14.93285260176
242 81 1 0.5564 6.663966672039999 6.355980806431999 15.898867045200001
243 81 1 0.5564 6.663993327959998 7.170963196448 14.596850096279999
244 82 2 -1.1128 11.105975820639998 6.259971522496 14.93285260176
245 82 1 0.5564 11.10596249268 6.355980806431999 15.898867045200001
246 82 1 0.5564 11.1059891486 7.170963196448 14.596850096279999
247 83 2 -1.1128 15.548957910319999 6.259971522496 14.93285260176
248 83 1 0.5564 15.548944582359999 6.355980806431999 15.898867045200001
249 83 1 0.5564 15.548971238279998 7.170963196448 14.596850096279999
250 84 2 -1.1128 19.99194 6.259971522496 14.93285260176
251 84 1 0.5564 19.991926672039998 6.355980806431999 15.898867045200001
252 84 1 0.5564 19.99195332796 7.170963196448 14.596850096279999
253 85 2 -1.1128 -4.44299541764 10.1070605288 14.93285260176
254 85 1 0.5564 -4.443008745599999 10.203069812735999 15.898867045200001
255 85 1 0.5564 -4.442982089679999 11.018052202752 14.596850096279999
256 86 2 -1.1128 1.332795999929483e-05 10.1070605288 14.93285260176
257 86 1 0.5564 2.3059661501179106e-16 10.203069812735999 15.898867045200001
258 86 1 0.5564 2.665592000046204e-05 11.018052202752 14.596850096279999
259 87 2 -1.1128 4.44299541764 10.1070605288 14.93285260176
260 87 1 0.5564 4.442982089679999 10.203069812735999 15.898867045200001
261 87 1 0.5564 4.4430087456 11.018052202752 14.596850096279999
262 88 2 -1.1128 8.884964582359999 10.1070605288 14.93285260176
263 88 1 0.5564 8.884977910319998 10.203069812735999 15.898867045200001
264 88 1 0.5564 8.884977910319998 11.018052202752 14.596850096279999
265 89 2 -1.1128 13.327973327959999 10.1070605288 14.93285260176
266 89 1 0.5564 13.32796 10.203069812735999 15.898867045200001
267 89 1 0.5564 13.327986655919998 11.018052202752 14.596850096279999
268 90 2 -1.1128 17.76994249268 10.1070605288 14.93285260176
269 90 1 0.5564 17.76992916472 10.203069812735999 15.898867045200001
270 90 1 0.5564 17.76995582064 11.018052202752 14.596850096279999
271 91 2 -1.1128 -6.663979999999999 13.955165262079998 14.93285260176
272 91 1 0.5564 -6.664006655919999 14.050181903743997 15.898867045200001
273 91 1 0.5564 -6.663966672039999 14.866156936031999 14.596850096279999
274 92 2 -1.1128 -2.2209979103199995 13.955165262079998 14.93285260176
275 92 1 0.5564 -2.220997910319999 14.050181903743997 15.898867045200001
276 92 1 0.5564 -2.22098458236 14.866156936031999 14.596850096279999
277 93 2 -1.1128 2.2209979103200013 13.955165262079998 14.93285260176
278 93 1 0.5564 2.2209712544000006 14.050181903743997 15.898867045200001
279 93 1 0.5564 2.22101123828 14.866156936031999 14.596850096279999
280 94 2 -1.1128 6.6639800000000005 13.955165262079998 14.93285260176
281 94 1 0.5564 6.663953344079999 14.050181903743997 15.898867045200001
282 94 1 0.5564 6.663993327959999 14.866156936031999 14.596850096279999
283 95 2 -1.1128 11.105975820640001 13.955165262079998 14.93285260176
284 95 1 0.5564 11.105949164719998 14.050181903743997 15.898867045200001
285 95 1 0.5564 11.105989148599999 14.866156936031999 14.596850096279999
286 96 2 -1.1128 15.548957910319999 13.955165262079998 14.93285260176
287 96 1 0.5564 15.5489312544 14.050181903743997 15.898867045200001
288 96 1 0.5564 15.54897123828 14.866156936031999 14.596850096279999
289 97 2 -1.1128 -8.88496458236 17.802254268384 14.93285260176
290 97 1 0.5564 -8.88496458236 17.898240467616 15.898867045200001
291 97 1 0.5564 -8.884951254399999 18.713245942336 14.596850096279999
292 98 2 -1.1128 -4.442995417640001 17.802254268384 14.93285260176
293 98 1 0.5564 -4.442995417640001 17.898240467616 15.898867045200001
294 98 1 0.5564 -4.442982089679999 18.713245942336 14.596850096279999
295 99 2 -1.1128 1.3327959998203095e-05 17.802254268384 14.93285260176
296 99 1 0.5564 1.3327959999670442e-05 17.898240467616 15.898867045200001
297 99 1 0.5564 2.6655920000110153e-05 18.713245942336 14.596850096279999
298 100 2 -1.1128 4.442995417639999 17.802254268384 14.93285260176
299 100 1 0.5564 4.442995417639997 17.898240467616 15.898867045200001
300 100 1 0.5564 4.443008745599999 18.713245942336 14.596850096279999
301 101 2 -1.1128 8.88496458236 17.802254268384 14.93285260176
302 101 1 0.5564 8.884964582359997 17.898240467616 15.898867045200001
303 101 1 0.5564 8.88497791032 18.713245942336 14.596850096279999
304 102 2 -1.1128 13.327973327959997 17.802254268384 14.93285260176
305 102 1 0.5564 13.32797332796 17.898240467616 15.898867045200001
306 102 1 0.5564 13.327986655919997 18.713245942336 14.596850096279999
307 103 2 -1.1128 -11.10696208968 21.649343274688 14.93285260176
308 103 1 0.5564 -11.10697541764 21.745352558624 15.898867045200001
309 103 1 0.5564 -11.106948761719998 22.560334948639998 14.596850096279999
310 104 2 -1.1128 -6.6639800000000005 21.649343274688 14.93285260176
311 104 1 0.5564 -6.663993327959999 21.745352558624 15.898867045200001
312 104 1 0.5564 -6.663966672039999 22.560334948639998 14.596850096279999
313 105 2 -1.1128 -2.220997910320001 21.649343274688 14.93285260176
314 105 1 0.5564 -2.220984582359999 21.745352558624 15.898867045200001
315 105 1 0.5564 -2.220984582359999 22.560334948639998 14.596850096279999
316 106 2 -1.1128 2.220997910319998 21.649343274688 14.93285260176
317 106 1 0.5564 2.2209845823600007 21.745352558624 15.898867045200001
318 106 1 0.5564 2.221011238280002 22.560334948639998 14.596850096279999
319 107 2 -1.1128 6.663979999999997 21.649343274688 14.93285260176
320 107 1 0.5564 6.663966672040002 21.745352558624 15.898867045200001
321 107 1 0.5564 6.663993327960001 22.560334948639998 14.596850096279999
322 108 2 -1.1128 11.10597582064 21.649343274688 14.93285260176
323 108 1 0.5564 11.10596249268 21.745352558624 15.898867045200001
324 108 1 0.5564 11.105989148599999 22.560334948639998 14.596850096279999
325 109 2 -1.1128 1.3327959999994514e-05 2.412882516192 22.173558895080003
326 109 1 0.5564 -1.3327959999912016e-05 2.507899157856 23.139515417040002
327 109 1 0.5564 2.6655920000125664e-05 3.3238741901439997 21.837556389600003
328 110 2 -1.1128 4.44299541764 2.412882516192 22.173558895080003
329 110 1 0.5564 4.4429687617199995 2.507899157856 23.139515417040002
330 110 1 0.5564 4.443008745599999 3.3238741901439997 21.837556389600003
331 111 2 -1.1128 8.884964582359999 2.412882516192 22.173558895080003
332 111 1 0.5564 8.88496458236 2.507899157856 23.139515417040002
333 111 1 0.5564 8.88497791032 3.3238741901439997 21.837556389600003
334 112 2 -1.1128 13.327973327959999 2.412882516192 22.173558895080003
335 112 1 0.5564 13.32794667204 2.507899157856 23.139515417040002
336 112 1 0.5564 13.327986655919998 3.3238741901439997 21.837556389600003
337 113 2 -1.1128 17.76994249268 2.412882516192 22.173558895080003
338 113 1 0.5564 17.76991583676 2.507899157856 23.139515417040002
339 113 1 0.5564 17.76995582064 3.3238741901439997 21.837556389600003
340 114 2 -1.1128 22.212924582359996 2.412882516192 22.173558895080003
341 114 1 0.5564 22.212924582359996 2.507899157856 23.139515417040002
342 114 1 0.5564 22.212937910319997 3.3238741901439997 21.837556389600003
343 115 2 -1.1128 -2.22099791032 6.259971522496 22.173558895080003
344 115 1 0.5564 -2.22098458236 6.355980806431999 23.139515417040002
345 115 1 0.5564 -2.2209845823599994 7.170963196448 21.837556389600003
346 116 2 -1.1128 2.220997910319999 6.259971522496 22.173558895080003
347 116 1 0.5564 2.22098458236 6.355980806431999 23.139515417040002
348 116 1 0.5564 2.2210112382799996 7.170963196448 21.837556389600003
349 117 2 -1.1128 6.66398 6.259971522496 22.173558895080003
350 117 1 0.5564 6.663966672039999 6.355980806431999 23.139515417040002
351 117 1 0.5564 6.663993327959998 7.170963196448 21.837556389600003
352 118 2 -1.1128 11.105975820639998 6.259971522496 22.173558895080003
353 118 1 0.5564 11.10596249268 6.355980806431999 23.139515417040002
354 118 1 0.5564 11.1059891486 7.170963196448 21.837556389600003
355 119 2 -1.1128 15.548957910319999 6.259971522496 22.173558895080003
356 119 1 0.5564 15.548944582359999 6.355980806431999 23.139515417040002
357 119 1 0.5564 15.548971238279998 7.170963196448 21.837556389600003
358 120 2 -1.1128 19.99194 6.259971522496 22.173558895080003
359 120 1 0.5564 19.991926672039998 6.355980806431999 23.139515417040002
360 120 1 0.5564 19.99195332796 7.170963196448 21.837556389600003
361 121 2 -1.1128 -4.44299541764 10.1070605288 22.173558895080003
362 121 1 0.5564 -4.443008745599999 10.203069812735999 23.139515417040002
363 121 1 0.5564 -4.442982089679999 11.018052202752 21.837556389600003
364 122 2 -1.1128 1.332795999929483e-05 10.1070605288 22.173558895080003
365 122 1 0.5564 2.3059661501179106e-16 10.203069812735999 23.139515417040002
366 122 1 0.5564 2.665592000046204e-05 11.018052202752 21.837556389600003
367 123 2 -1.1128 4.44299541764 10.1070605288 22.173558895080003
368 123 1 0.5564 4.442982089679999 10.203069812735999 23.139515417040002
369 123 1 0.5564 4.4430087456 11.018052202752 21.837556389600003
370 124 2 -1.1128 8.884964582359999 10.1070605288 22.173558895080003
371 124 1 0.5564 8.884977910319998 10.203069812735999 23.139515417040002
372 124 1 0.5564 8.884977910319998 11.018052202752 21.837556389600003
373 125 2 -1.1128 13.327973327959999 10.1070605288 22.173558895080003
374 125 1 0.5564 13.32796 10.203069812735999 23.139515417040002
375 125 1 0.5564 13.327986655919998 11.018052202752 21.837556389600003
376 126 2 -1.1128 17.76994249268 10.1070605288 22.173558895080003
377 126 1 0.5564 17.76992916472 10.203069812735999 23.139515417040002
378 126 1 0.5564 17.76995582064 11.018052202752 21.837556389600003
379 127 2 -1.1128 -6.663979999999999 13.955165262079998 22.173558895080003
380 127 1 0.5564 -6.664006655919999 14.050181903743997 23.139515417040002
381 127 1 0.5564 -6.663966672039999 14.866156936031999 21.837556389600003
382 128 2 -1.1128 -2.2209979103199995 13.955165262079998 22.173558895080003
383 128 1 0.5564 -2.220997910319999 14.050181903743997 23.139515417040002
384 128 1 0.5564 -2.22098458236 14.866156936031999 21.837556389600003
385 129 2 -1.1128 2.2209979103200013 13.955165262079998 22.173558895080003
386 129 1 0.5564 2.2209712544000006 14.050181903743997 23.139515417040002
387 129 1 0.5564 2.22101123828 14.866156936031999 21.837556389600003
388 130 2 -1.1128 6.6639800000000005 13.955165262079998 22.173558895080003
389 130 1 0.5564 6.663953344079999 14.050181903743997 23.139515417040002
390 130 1 0.5564 6.663993327959999 14.866156936031999 21.837556389600003
391 131 2 -1.1128 11.105975820640001 13.955165262079998 22.173558895080003
392 131 1 0.5564 11.105949164719998 14.050181903743997 23.139515417040002
393 131 1 0.5564 11.105989148599999 14.866156936031999 21.837556389600003
394 132 2 -1.1128 15.548957910319999 13.955165262079998 22.173558895080003
395 132 1 0.5564 15.5489312544 14.050181903743997 23.139515417040002
396 132 1 0.5564 15.54897123828 14.866156936031999 21.837556389600003
397 133 2 -1.1128 -8.88496458236 17.802254268384 22.173558895080003
398 133 1 0.5564 -8.88496458236 17.898240467616 23.139515417040002
399 133 1 0.5564 -8.884951254399999 18.713245942336 21.837556389600003
400 134 2 -1.1128 -4.442995417640001 17.802254268384 22.173558895080003
401 134 1 0.5564 -4.442995417640001 17.898240467616 23.139515417040002
402 134 1 0.5564 -4.442982089679999 18.713245942336 21.837556389600003
403 135 2 -1.1128 1.3327959998203095e-05 17.802254268384 22.173558895080003
404 135 1 0.5564 1.3327959999670442e-05 17.898240467616 23.139515417040002
405 135 1 0.5564 2.6655920000110153e-05 18.713245942336 21.837556389600003
406 136 2 -1.1128 4.442995417639999 17.802254268384 22.173558895080003
407 136 1 0.5564 4.442995417639997 17.898240467616 23.139515417040002
408 136 1 0.5564 4.443008745599999 18.713245942336 21.837556389600003
409 137 2 -1.1128 8.88496458236 17.802254268384 22.173558895080003
410 137 1 0.5564 8.884964582359997 17.898240467616 23.139515417040002
411 137 1 0.5564 8.88497791032 18.713245942336 21.837556389600003
412 138 2 -1.1128 13.327973327959997 17.802254268384 22.173558895080003
413 138 1 0.5564 13.32797332796 17.898240467616 23.139515417040002
414 138 1 0.5564 13.327986655919997 18.713245942336 21.837556389600003
415 139 2 -1.1128 -11.10696208968 21.649343274688 22.173558895080003
416 139 1 0.5564 -11.10697541764 21.745352558624 23.139515417040002
417 139 1 0.5564 -11.106948761719998 22.560334948639998 21.837556389600003
418 140 2 -1.1128 -6.6639800000000005 21.649343274688 22.173558895080003
419 140 1 0.5564 -6.663993327959999 21.745352558624 23.139515417040002
420 140 1 0.5564 -6.663966672039999 22.560334948639998 21.837556389600003
421 141 2 -1.1128 -2.220997910320001 21.649343274688 22.173558895080003
422 141 1 0.5564 -2.220984582359999 21.745352558624 23.139515417040002
423 141 1 0.5564 -2.220984582359999 22.560334948639998 21.837556389600003
424 142 2 -1.1128 2.220997910319998 21.649343274688 22.173558895080003
425 142 1 0.5564 2.2209845823600007 21.745352558624 23.139515417040002
426 142 1 0.5564 2.221011238280002 22.560334948639998 21.837556389600003
427 143 2 -1.1128 6.663979999999997 21.649343274688 22.173558895080003
428 143 1 0.5564 6.663966672040002 21.745352558624 23.139515417040002
429 143 1 0.5564 6.663993327960001 22.560334948639998 21.837556389600003
430 144 2 -1.1128 11.10597582064 21.649343274688 22.173558895080003
431 144 1 0.5564 11.10596249268 21.745352558624 23.139515417040002
432 144 1 0.5564 11.105989148599999 22.560334948639998 21.837556389600003
433 145 2 -1.1128 1.3327959999994514e-05 2.412882516192 29.41420726692
434 145 1 0.5564 -1.3327959999912016e-05 2.507899157856 30.37917912372
435 145 1 0.5564 2.6655920000125664e-05 3.3238741901439997 29.07722009628
436 146 2 -1.1128 4.44299541764 2.412882516192 29.41420726692
437 146 1 0.5564 4.4429687617199995 2.507899157856 30.37917912372
438 146 1 0.5564 4.443008745599999 3.3238741901439997 29.07722009628
439 147 2 -1.1128 8.884964582359999 2.412882516192 29.41420726692